+ 0 1 2 tcp 40 ------- 2 1.0 3.0 0 0
- 0 1 2 tcp 40 ------- 2 1.0 3.0 0 0
r 0.005032 1 2 tcp 40 ------- 2 1.0 3.0 0 0
+ 0.005032 2 3 tcp 40 ------- 2 1.0 3.0 0 0
- 0.005032 2 3 tcp 40 ------- 2 1.0 3.0 0 0
r 0.015048 2 3 tcp 40 ------- 2 1.0 3.0 0 0
+ 0.015048 3 0 ack 40 ------- 2 3.0 1.0 0 1
- 0.015048 3 0 ack 40 ------- 2 3.0 1.0 0 1
r 0.025064 3 0 ack 40 ------- 2 3.0 1.0 0 1
+ 0.025064 0 1 ack 40 ------- 2 3.0 1.0 0 1
- 0.025064 0 1 ack 40 ------- 2 3.0 1.0 0 1
r 0.030096 0 1 ack 40 ------- 2 3.0 1.0 0 1
+ 0.030096 1 2 tcp 1040 ------- 2 1.0 3.0 1 2
- 0.030096 1 2 tcp 1040 ------- 2 1.0 3.0 1 2
+ 0.030096 1 2 tcp 1040 ------- 2 1.0 3.0 2 3
- 0.030928 1 2 tcp 1040 ------- 2 1.0 3.0 2 3
r 0.035928 1 2 tcp 1040 ------- 2 1.0 3.0 1 2
+ 0.035928 2 3 tcp 1040 ------- 2 1.0 3.0 1 2
- 0.035928 2 3 tcp 1040 ------- 2 1.0 3.0 1 2
r 0.03676 1 2 tcp 1040 ------- 2 1.0 3.0 2 3
+ 0.03676 2 3 tcp 1040 ------- 2 1.0 3.0 2 3
- 0.03676 2 3 tcp 1040 ------- 2 1.0 3.0 2 3
r 0.046344 2 3 tcp 1040 ------- 2 1.0 3.0 1 2
+ 0.046344 3 0 ack 40 ------- 2 3.0 1.0 1 4
- 0.046344 3 0 ack 40 ------- 2 3.0 1.0 1 4
r 0.047176 2 3 tcp 1040 ------- 2 1.0 3.0 2 3
+ 0.047176 3 0 ack 40 ------- 2 3.0 1.0 2 5
- 0.047176 3 0 ack 40 ------- 2 3.0 1.0 2 5
r 0.05636 3 0 ack 40 ------- 2 3.0 1.0 1 4
+ 0.05636 0 1 ack 40 ------- 2 3.0 1.0 1 4
- 0.05636 0 1 ack 40 ------- 2 3.0 1.0 1 4
r 0.057192 3 0 ack 40 ------- 2 3.0 1.0 2 5
+ 0.057192 0 1 ack 40 ------- 2 3.0 1.0 2 5
- 0.057192 0 1 ack 40 ------- 2 3.0 1.0 2 5
r 0.061392 0 1 ack 40 ------- 2 3.0 1.0 1 4
+ 0.061392 1 2 tcp 1040 ------- 2 1.0 3.0 3 6
- 0.061392 1 2 tcp 1040 ------- 2 1.0 3.0 3 6
+ 0.061392 1 2 tcp 1040 ------- 2 1.0 3.0 4 7
r 0.062224 0 1 ack 40 ------- 2 3.0 1.0 2 5
+ 0.062224 1 2 tcp 1040 ------- 2 1.0 3.0 5 8
+ 0.062224 1 2 tcp 1040 ------- 2 1.0 3.0 6 9
- 0.062224 1 2 tcp 1040 ------- 2 1.0 3.0 4 7
- 0.063056 1 2 tcp 1040 ------- 2 1.0 3.0 5 8
- 0.063888 1 2 tcp 1040 ------- 2 1.0 3.0 6 9
r 0.067224 1 2 tcp 1040 ------- 2 1.0 3.0 3 6
+ 0.067224 2 3 tcp 1040 ------- 2 1.0 3.0 3 6
- 0.067224 2 3 tcp 1040 ------- 2 1.0 3.0 3 6
r 0.068056 1 2 tcp 1040 ------- 2 1.0 3.0 4 7
+ 0.068056 2 3 tcp 1040 ------- 2 1.0 3.0 4 7
- 0.068056 2 3 tcp 1040 ------- 2 1.0 3.0 4 7
r 0.068888 1 2 tcp 1040 ------- 2 1.0 3.0 5 8
+ 0.068888 2 3 tcp 1040 ------- 2 1.0 3.0 5 8
- 0.068888 2 3 tcp 1040 ------- 2 1.0 3.0 5 8
r 0.06972 1 2 tcp 1040 ------- 2 1.0 3.0 6 9
+ 0.06972 2 3 tcp 1040 ------- 2 1.0 3.0 6 9
- 0.06972 2 3 tcp 1040 ------- 2 1.0 3.0 6 9
r 0.07764 2 3 tcp 1040 ------- 2 1.0 3.0 3 6
+ 0.07764 3 0 ack 40 ------- 2 3.0 1.0 3 10
- 0.07764 3 0 ack 40 ------- 2 3.0 1.0 3 10
r 0.078472 2 3 tcp 1040 ------- 2 1.0 3.0 4 7
+ 0.078472 3 0 ack 40 ------- 2 3.0 1.0 4 11
- 0.078472 3 0 ack 40 ------- 2 3.0 1.0 4 11
r 0.079304 2 3 tcp 1040 ------- 2 1.0 3.0 5 8
+ 0.079304 3 0 ack 40 ------- 2 3.0 1.0 5 12
- 0.079304 3 0 ack 40 ------- 2 3.0 1.0 5 12
r 0.080136 2 3 tcp 1040 ------- 2 1.0 3.0 6 9
+ 0.080136 3 0 ack 40 ------- 2 3.0 1.0 6 13
- 0.080136 3 0 ack 40 ------- 2 3.0 1.0 6 13
r 0.087656 3 0 ack 40 ------- 2 3.0 1.0 3 10
+ 0.087656 0 1 ack 40 ------- 2 3.0 1.0 3 10
- 0.087656 0 1 ack 40 ------- 2 3.0 1.0 3 10
r 0.088488 3 0 ack 40 ------- 2 3.0 1.0 4 11
+ 0.088488 0 1 ack 40 ------- 2 3.0 1.0 4 11
- 0.088488 0 1 ack 40 ------- 2 3.0 1.0 4 11
r 0.08932 3 0 ack 40 ------- 2 3.0 1.0 5 12
+ 0.08932 0 1 ack 40 ------- 2 3.0 1.0 5 12
- 0.08932 0 1 ack 40 ------- 2 3.0 1.0 5 12
r 0.090152 3 0 ack 40 ------- 2 3.0 1.0 6 13
+ 0.090152 0 1 ack 40 ------- 2 3.0 1.0 6 13
- 0.090152 0 1 ack 40 ------- 2 3.0 1.0 6 13
r 0.092688 0 1 ack 40 ------- 2 3.0 1.0 3 10
+ 0.092688 1 2 tcp 1040 ------- 2 1.0 3.0 7 14
- 0.092688 1 2 tcp 1040 ------- 2 1.0 3.0 7 14
+ 0.092688 1 2 tcp 1040 ------- 2 1.0 3.0 8 15
r 0.09352 0 1 ack 40 ------- 2 3.0 1.0 4 11
+ 0.09352 1 2 tcp 1040 ------- 2 1.0 3.0 9 16
+ 0.09352 1 2 tcp 1040 ------- 2 1.0 3.0 10 17
- 0.09352 1 2 tcp 1040 ------- 2 1.0 3.0 8 15
- 0.094352 1 2 tcp 1040 ------- 2 1.0 3.0 9 16
r 0.094352 0 1 ack 40 ------- 2 3.0 1.0 5 12
+ 0.094352 1 2 tcp 1040 ------- 2 1.0 3.0 11 18
+ 0.094352 1 2 tcp 1040 ------- 2 1.0 3.0 12 19
- 0.095184 1 2 tcp 1040 ------- 2 1.0 3.0 10 17
r 0.095184 0 1 ack 40 ------- 2 3.0 1.0 6 13
+ 0.095184 1 2 tcp 1040 ------- 2 1.0 3.0 13 20
+ 0.095184 1 2 tcp 1040 ------- 2 1.0 3.0 14 21
- 0.096016 1 2 tcp 1040 ------- 2 1.0 3.0 11 18
- 0.096848 1 2 tcp 1040 ------- 2 1.0 3.0 12 19
- 0.09768 1 2 tcp 1040 ------- 2 1.0 3.0 13 20
- 0.098512 1 2 tcp 1040 ------- 2 1.0 3.0 14 21
r 0.09852 1 2 tcp 1040 ------- 2 1.0 3.0 7 14
+ 0.09852 2 3 tcp 1040 ------- 2 1.0 3.0 7 14
- 0.09852 2 3 tcp 1040 ------- 2 1.0 3.0 7 14
r 0.099352 1 2 tcp 1040 ------- 2 1.0 3.0 8 15
+ 0.099352 2 3 tcp 1040 ------- 2 1.0 3.0 8 15
- 0.099352 2 3 tcp 1040 ------- 2 1.0 3.0 8 15
r 0.100184 1 2 tcp 1040 ------- 2 1.0 3.0 9 16
+ 0.100184 2 3 tcp 1040 ------- 2 1.0 3.0 9 16
- 0.100184 2 3 tcp 1040 ------- 2 1.0 3.0 9 16
r 0.101016 1 2 tcp 1040 ------- 2 1.0 3.0 10 17
+ 0.101016 2 3 tcp 1040 ------- 2 1.0 3.0 10 17
- 0.101016 2 3 tcp 1040 ------- 2 1.0 3.0 10 17
r 0.101848 1 2 tcp 1040 ------- 2 1.0 3.0 11 18
+ 0.101848 2 3 tcp 1040 ------- 2 1.0 3.0 11 18
- 0.101848 2 3 tcp 1040 ------- 2 1.0 3.0 11 18
r 0.10268 1 2 tcp 1040 ------- 2 1.0 3.0 12 19
+ 0.10268 2 3 tcp 1040 ------- 2 1.0 3.0 12 19
- 0.10268 2 3 tcp 1040 ------- 2 1.0 3.0 12 19
r 0.103512 1 2 tcp 1040 ------- 2 1.0 3.0 13 20
+ 0.103512 2 3 tcp 1040 ------- 2 1.0 3.0 13 20
- 0.103512 2 3 tcp 1040 ------- 2 1.0 3.0 13 20
r 0.104344 1 2 tcp 1040 ------- 2 1.0 3.0 14 21
+ 0.104344 2 3 tcp 1040 ------- 2 1.0 3.0 14 21
- 0.104344 2 3 tcp 1040 ------- 2 1.0 3.0 14 21
r 0.108936 2 3 tcp 1040 ------- 2 1.0 3.0 7 14
+ 0.108936 3 0 ack 40 ------- 2 3.0 1.0 7 22
- 0.108936 3 0 ack 40 ------- 2 3.0 1.0 7 22
r 0.109768 2 3 tcp 1040 ------- 2 1.0 3.0 8 15
+ 0.109768 3 0 ack 40 ------- 2 3.0 1.0 8 23
- 0.109768 3 0 ack 40 ------- 2 3.0 1.0 8 23
r 0.1106 2 3 tcp 1040 ------- 2 1.0 3.0 9 16
+ 0.1106 3 0 ack 40 ------- 2 3.0 1.0 9 24
- 0.1106 3 0 ack 40 ------- 2 3.0 1.0 9 24
r 0.111432 2 3 tcp 1040 ------- 2 1.0 3.0 10 17
+ 0.111432 3 0 ack 40 ------- 2 3.0 1.0 10 25
- 0.111432 3 0 ack 40 ------- 2 3.0 1.0 10 25
r 0.112264 2 3 tcp 1040 ------- 2 1.0 3.0 11 18
+ 0.112264 3 0 ack 40 ------- 2 3.0 1.0 11 26
- 0.112264 3 0 ack 40 ------- 2 3.0 1.0 11 26
r 0.113096 2 3 tcp 1040 ------- 2 1.0 3.0 12 19
+ 0.113096 3 0 ack 40 ------- 2 3.0 1.0 12 27
- 0.113096 3 0 ack 40 ------- 2 3.0 1.0 12 27
r 0.113928 2 3 tcp 1040 ------- 2 1.0 3.0 13 20
+ 0.113928 3 0 ack 40 ------- 2 3.0 1.0 13 28
- 0.113928 3 0 ack 40 ------- 2 3.0 1.0 13 28
r 0.11476 2 3 tcp 1040 ------- 2 1.0 3.0 14 21
+ 0.11476 3 0 ack 40 ------- 2 3.0 1.0 14 29
- 0.11476 3 0 ack 40 ------- 2 3.0 1.0 14 29
r 0.118952 3 0 ack 40 ------- 2 3.0 1.0 7 22
+ 0.118952 0 1 ack 40 ------- 2 3.0 1.0 7 22
- 0.118952 0 1 ack 40 ------- 2 3.0 1.0 7 22
r 0.119784 3 0 ack 40 ------- 2 3.0 1.0 8 23
+ 0.119784 0 1 ack 40 ------- 2 3.0 1.0 8 23
- 0.119784 0 1 ack 40 ------- 2 3.0 1.0 8 23
r 0.120616 3 0 ack 40 ------- 2 3.0 1.0 9 24
+ 0.120616 0 1 ack 40 ------- 2 3.0 1.0 9 24
- 0.120616 0 1 ack 40 ------- 2 3.0 1.0 9 24
r 0.121448 3 0 ack 40 ------- 2 3.0 1.0 10 25
+ 0.121448 0 1 ack 40 ------- 2 3.0 1.0 10 25
- 0.121448 0 1 ack 40 ------- 2 3.0 1.0 10 25
r 0.12228 3 0 ack 40 ------- 2 3.0 1.0 11 26
+ 0.12228 0 1 ack 40 ------- 2 3.0 1.0 11 26
- 0.12228 0 1 ack 40 ------- 2 3.0 1.0 11 26
r 0.123112 3 0 ack 40 ------- 2 3.0 1.0 12 27
+ 0.123112 0 1 ack 40 ------- 2 3.0 1.0 12 27
- 0.123112 0 1 ack 40 ------- 2 3.0 1.0 12 27
r 0.123944 3 0 ack 40 ------- 2 3.0 1.0 13 28
+ 0.123944 0 1 ack 40 ------- 2 3.0 1.0 13 28
- 0.123944 0 1 ack 40 ------- 2 3.0 1.0 13 28
r 0.123984 0 1 ack 40 ------- 2 3.0 1.0 7 22
+ 0.123984 1 2 tcp 1040 ------- 2 1.0 3.0 15 30
- 0.123984 1 2 tcp 1040 ------- 2 1.0 3.0 15 30
+ 0.123984 1 2 tcp 1040 ------- 2 1.0 3.0 16 31
r 0.124776 3 0 ack 40 ------- 2 3.0 1.0 14 29
+ 0.124776 0 1 ack 40 ------- 2 3.0 1.0 14 29
- 0.124776 0 1 ack 40 ------- 2 3.0 1.0 14 29
r 0.124816 0 1 ack 40 ------- 2 3.0 1.0 8 23
+ 0.124816 1 2 tcp 1040 ------- 2 1.0 3.0 17 32
+ 0.124816 1 2 tcp 1040 ------- 2 1.0 3.0 18 33
- 0.124816 1 2 tcp 1040 ------- 2 1.0 3.0 16 31
r 0.125648 0 1 ack 40 ------- 2 3.0 1.0 9 24
+ 0.125648 1 2 tcp 1040 ------- 2 1.0 3.0 19 34
+ 0.125648 1 2 tcp 1040 ------- 2 1.0 3.0 20 35
- 0.125648 1 2 tcp 1040 ------- 2 1.0 3.0 17 32
r 0.12648 0 1 ack 40 ------- 2 3.0 1.0 10 25
+ 0.12648 1 2 tcp 1040 ------- 2 1.0 3.0 21 36
+ 0.12648 1 2 tcp 1040 ------- 2 1.0 3.0 22 37
- 0.12648 1 2 tcp 1040 ------- 2 1.0 3.0 18 33
r 0.127312 0 1 ack 40 ------- 2 3.0 1.0 11 26
+ 0.127312 1 2 tcp 1040 ------- 2 1.0 3.0 23 38
+ 0.127312 1 2 tcp 1040 ------- 2 1.0 3.0 24 39
- 0.127312 1 2 tcp 1040 ------- 2 1.0 3.0 19 34
r 0.128144 0 1 ack 40 ------- 2 3.0 1.0 12 27
+ 0.128144 1 2 tcp 1040 ------- 2 1.0 3.0 25 40
+ 0.128144 1 2 tcp 1040 ------- 2 1.0 3.0 26 41
- 0.128144 1 2 tcp 1040 ------- 2 1.0 3.0 20 35
r 0.128976 0 1 ack 40 ------- 2 3.0 1.0 13 28
+ 0.128976 1 2 tcp 1040 ------- 2 1.0 3.0 27 42
+ 0.128976 1 2 tcp 1040 ------- 2 1.0 3.0 28 43
- 0.128976 1 2 tcp 1040 ------- 2 1.0 3.0 21 36
r 0.129808 0 1 ack 40 ------- 2 3.0 1.0 14 29
+ 0.129808 1 2 tcp 1040 ------- 2 1.0 3.0 29 44
+ 0.129808 1 2 tcp 1040 ------- 2 1.0 3.0 30 45
- 0.129808 1 2 tcp 1040 ------- 2 1.0 3.0 22 37
r 0.129816 1 2 tcp 1040 ------- 2 1.0 3.0 15 30
+ 0.129816 2 3 tcp 1040 ------- 2 1.0 3.0 15 30
- 0.129816 2 3 tcp 1040 ------- 2 1.0 3.0 15 30
- 0.13064 1 2 tcp 1040 ------- 2 1.0 3.0 23 38
r 0.130648 1 2 tcp 1040 ------- 2 1.0 3.0 16 31
+ 0.130648 2 3 tcp 1040 ------- 2 1.0 3.0 16 31
- 0.130648 2 3 tcp 1040 ------- 2 1.0 3.0 16 31
- 0.131472 1 2 tcp 1040 ------- 2 1.0 3.0 24 39
r 0.13148 1 2 tcp 1040 ------- 2 1.0 3.0 17 32
+ 0.13148 2 3 tcp 1040 ------- 2 1.0 3.0 17 32
- 0.13148 2 3 tcp 1040 ------- 2 1.0 3.0 17 32
- 0.132304 1 2 tcp 1040 ------- 2 1.0 3.0 25 40
r 0.132312 1 2 tcp 1040 ------- 2 1.0 3.0 18 33
+ 0.132312 2 3 tcp 1040 ------- 2 1.0 3.0 18 33
- 0.132312 2 3 tcp 1040 ------- 2 1.0 3.0 18 33
- 0.133136 1 2 tcp 1040 ------- 2 1.0 3.0 26 41
r 0.133144 1 2 tcp 1040 ------- 2 1.0 3.0 19 34
+ 0.133144 2 3 tcp 1040 ------- 2 1.0 3.0 19 34
- 0.133144 2 3 tcp 1040 ------- 2 1.0 3.0 19 34
- 0.133968 1 2 tcp 1040 ------- 2 1.0 3.0 27 42
r 0.133976 1 2 tcp 1040 ------- 2 1.0 3.0 20 35
+ 0.133976 2 3 tcp 1040 ------- 2 1.0 3.0 20 35
- 0.133976 2 3 tcp 1040 ------- 2 1.0 3.0 20 35
- 0.1348 1 2 tcp 1040 ------- 2 1.0 3.0 28 43
r 0.134808 1 2 tcp 1040 ------- 2 1.0 3.0 21 36
+ 0.134808 2 3 tcp 1040 ------- 2 1.0 3.0 21 36
- 0.134808 2 3 tcp 1040 ------- 2 1.0 3.0 21 36
- 0.135632 1 2 tcp 1040 ------- 2 1.0 3.0 29 44
r 0.13564 1 2 tcp 1040 ------- 2 1.0 3.0 22 37
+ 0.13564 2 3 tcp 1040 ------- 2 1.0 3.0 22 37
- 0.13564 2 3 tcp 1040 ------- 2 1.0 3.0 22 37
- 0.136464 1 2 tcp 1040 ------- 2 1.0 3.0 30 45
r 0.136472 1 2 tcp 1040 ------- 2 1.0 3.0 23 38
+ 0.136472 2 3 tcp 1040 ------- 2 1.0 3.0 23 38
- 0.136472 2 3 tcp 1040 ------- 2 1.0 3.0 23 38
r 0.137304 1 2 tcp 1040 ------- 2 1.0 3.0 24 39
+ 0.137304 2 3 tcp 1040 ------- 2 1.0 3.0 24 39
- 0.137304 2 3 tcp 1040 ------- 2 1.0 3.0 24 39
r 0.138136 1 2 tcp 1040 ------- 2 1.0 3.0 25 40
+ 0.138136 2 3 tcp 1040 ------- 2 1.0 3.0 25 40
- 0.138136 2 3 tcp 1040 ------- 2 1.0 3.0 25 40
r 0.138968 1 2 tcp 1040 ------- 2 1.0 3.0 26 41
+ 0.138968 2 3 tcp 1040 ------- 2 1.0 3.0 26 41
- 0.138968 2 3 tcp 1040 ------- 2 1.0 3.0 26 41
r 0.1398 1 2 tcp 1040 ------- 2 1.0 3.0 27 42
+ 0.1398 2 3 tcp 1040 ------- 2 1.0 3.0 27 42
- 0.1398 2 3 tcp 1040 ------- 2 1.0 3.0 27 42
r 0.140232 2 3 tcp 1040 ------- 2 1.0 3.0 15 30
+ 0.140232 3 0 ack 40 ------- 2 3.0 1.0 15 46
- 0.140232 3 0 ack 40 ------- 2 3.0 1.0 15 46
r 0.140632 1 2 tcp 1040 ------- 2 1.0 3.0 28 43
+ 0.140632 2 3 tcp 1040 ------- 2 1.0 3.0 28 43
- 0.140632 2 3 tcp 1040 ------- 2 1.0 3.0 28 43
r 0.141064 2 3 tcp 1040 ------- 2 1.0 3.0 16 31
+ 0.141064 3 0 ack 40 ------- 2 3.0 1.0 16 47
- 0.141064 3 0 ack 40 ------- 2 3.0 1.0 16 47
r 0.141464 1 2 tcp 1040 ------- 2 1.0 3.0 29 44
+ 0.141464 2 3 tcp 1040 ------- 2 1.0 3.0 29 44
- 0.141464 2 3 tcp 1040 ------- 2 1.0 3.0 29 44
r 0.141896 2 3 tcp 1040 ------- 2 1.0 3.0 17 32
+ 0.141896 3 0 ack 40 ------- 2 3.0 1.0 17 48
- 0.141896 3 0 ack 40 ------- 2 3.0 1.0 17 48
r 0.142296 1 2 tcp 1040 ------- 2 1.0 3.0 30 45
+ 0.142296 2 3 tcp 1040 ------- 2 1.0 3.0 30 45
- 0.142296 2 3 tcp 1040 ------- 2 1.0 3.0 30 45
r 0.142728 2 3 tcp 1040 ------- 2 1.0 3.0 18 33
+ 0.142728 3 0 ack 40 ------- 2 3.0 1.0 18 49
- 0.142728 3 0 ack 40 ------- 2 3.0 1.0 18 49
r 0.14356 2 3 tcp 1040 ------- 2 1.0 3.0 19 34
+ 0.14356 3 0 ack 40 ------- 2 3.0 1.0 19 50
- 0.14356 3 0 ack 40 ------- 2 3.0 1.0 19 50
r 0.144392 2 3 tcp 1040 ------- 2 1.0 3.0 20 35
+ 0.144392 3 0 ack 40 ------- 2 3.0 1.0 20 51
- 0.144392 3 0 ack 40 ------- 2 3.0 1.0 20 51
r 0.145224 2 3 tcp 1040 ------- 2 1.0 3.0 21 36
+ 0.145224 3 0 ack 40 ------- 2 3.0 1.0 21 52
- 0.145224 3 0 ack 40 ------- 2 3.0 1.0 21 52
r 0.146056 2 3 tcp 1040 ------- 2 1.0 3.0 22 37
+ 0.146056 3 0 ack 40 ------- 2 3.0 1.0 22 53
- 0.146056 3 0 ack 40 ------- 2 3.0 1.0 22 53
r 0.146888 2 3 tcp 1040 ------- 2 1.0 3.0 23 38
+ 0.146888 3 0 ack 40 ------- 2 3.0 1.0 23 54
- 0.146888 3 0 ack 40 ------- 2 3.0 1.0 23 54
r 0.14772 2 3 tcp 1040 ------- 2 1.0 3.0 24 39
+ 0.14772 3 0 ack 40 ------- 2 3.0 1.0 24 55
- 0.14772 3 0 ack 40 ------- 2 3.0 1.0 24 55
r 0.148552 2 3 tcp 1040 ------- 2 1.0 3.0 25 40
+ 0.148552 3 0 ack 40 ------- 2 3.0 1.0 25 56
- 0.148552 3 0 ack 40 ------- 2 3.0 1.0 25 56
r 0.149384 2 3 tcp 1040 ------- 2 1.0 3.0 26 41
+ 0.149384 3 0 ack 40 ------- 2 3.0 1.0 26 57
- 0.149384 3 0 ack 40 ------- 2 3.0 1.0 26 57
r 0.150216 2 3 tcp 1040 ------- 2 1.0 3.0 27 42
+ 0.150216 3 0 ack 40 ------- 2 3.0 1.0 27 58
- 0.150216 3 0 ack 40 ------- 2 3.0 1.0 27 58
r 0.150248 3 0 ack 40 ------- 2 3.0 1.0 15 46
+ 0.150248 0 1 ack 40 ------- 2 3.0 1.0 15 46
- 0.150248 0 1 ack 40 ------- 2 3.0 1.0 15 46
r 0.151048 2 3 tcp 1040 ------- 2 1.0 3.0 28 43
+ 0.151048 3 0 ack 40 ------- 2 3.0 1.0 28 59
- 0.151048 3 0 ack 40 ------- 2 3.0 1.0 28 59
r 0.15108 3 0 ack 40 ------- 2 3.0 1.0 16 47
+ 0.15108 0 1 ack 40 ------- 2 3.0 1.0 16 47
- 0.15108 0 1 ack 40 ------- 2 3.0 1.0 16 47
r 0.15188 2 3 tcp 1040 ------- 2 1.0 3.0 29 44
+ 0.15188 3 0 ack 40 ------- 2 3.0 1.0 29 60
- 0.15188 3 0 ack 40 ------- 2 3.0 1.0 29 60
r 0.151912 3 0 ack 40 ------- 2 3.0 1.0 17 48
+ 0.151912 0 1 ack 40 ------- 2 3.0 1.0 17 48
- 0.151912 0 1 ack 40 ------- 2 3.0 1.0 17 48
r 0.152712 2 3 tcp 1040 ------- 2 1.0 3.0 30 45
+ 0.152712 3 0 ack 40 ------- 2 3.0 1.0 30 61
- 0.152712 3 0 ack 40 ------- 2 3.0 1.0 30 61
r 0.152744 3 0 ack 40 ------- 2 3.0 1.0 18 49
+ 0.152744 0 1 ack 40 ------- 2 3.0 1.0 18 49
- 0.152744 0 1 ack 40 ------- 2 3.0 1.0 18 49
r 0.153576 3 0 ack 40 ------- 2 3.0 1.0 19 50
+ 0.153576 0 1 ack 40 ------- 2 3.0 1.0 19 50
- 0.153576 0 1 ack 40 ------- 2 3.0 1.0 19 50
r 0.154408 3 0 ack 40 ------- 2 3.0 1.0 20 51
+ 0.154408 0 1 ack 40 ------- 2 3.0 1.0 20 51
- 0.154408 0 1 ack 40 ------- 2 3.0 1.0 20 51
r 0.15524 3 0 ack 40 ------- 2 3.0 1.0 21 52
+ 0.15524 0 1 ack 40 ------- 2 3.0 1.0 21 52
- 0.15524 0 1 ack 40 ------- 2 3.0 1.0 21 52
r 0.15528 0 1 ack 40 ------- 2 3.0 1.0 15 46
+ 0.15528 1 2 tcp 1040 ------- 2 1.0 3.0 31 62
- 0.15528 1 2 tcp 1040 ------- 2 1.0 3.0 31 62
+ 0.15528 1 2 tcp 1040 ------- 2 1.0 3.0 32 63
r 0.156072 3 0 ack 40 ------- 2 3.0 1.0 22 53
+ 0.156072 0 1 ack 40 ------- 2 3.0 1.0 22 53
- 0.156072 0 1 ack 40 ------- 2 3.0 1.0 22 53
r 0.156112 0 1 ack 40 ------- 2 3.0 1.0 16 47
+ 0.156112 1 2 tcp 1040 ------- 2 1.0 3.0 33 64
+ 0.156112 1 2 tcp 1040 ------- 2 1.0 3.0 34 65
- 0.156112 1 2 tcp 1040 ------- 2 1.0 3.0 32 63
r 0.156904 3 0 ack 40 ------- 2 3.0 1.0 23 54
+ 0.156904 0 1 ack 40 ------- 2 3.0 1.0 23 54
- 0.156904 0 1 ack 40 ------- 2 3.0 1.0 23 54
r 0.156944 0 1 ack 40 ------- 2 3.0 1.0 17 48
+ 0.156944 1 2 tcp 1040 ------- 2 1.0 3.0 35 66
+ 0.156944 1 2 tcp 1040 ------- 2 1.0 3.0 36 67
- 0.156944 1 2 tcp 1040 ------- 2 1.0 3.0 33 64
r 0.157736 3 0 ack 40 ------- 2 3.0 1.0 24 55
+ 0.157736 0 1 ack 40 ------- 2 3.0 1.0 24 55
- 0.157736 0 1 ack 40 ------- 2 3.0 1.0 24 55
r 0.157776 0 1 ack 40 ------- 2 3.0 1.0 18 49
+ 0.157776 1 2 tcp 1040 ------- 2 1.0 3.0 37 68
+ 0.157776 1 2 tcp 1040 ------- 2 1.0 3.0 38 69
- 0.157776 1 2 tcp 1040 ------- 2 1.0 3.0 34 65
r 0.158568 3 0 ack 40 ------- 2 3.0 1.0 25 56
+ 0.158568 0 1 ack 40 ------- 2 3.0 1.0 25 56
- 0.158568 0 1 ack 40 ------- 2 3.0 1.0 25 56
r 0.158608 0 1 ack 40 ------- 2 3.0 1.0 19 50
+ 0.158608 1 2 tcp 1040 ------- 2 1.0 3.0 39 70
- 0.158608 1 2 tcp 1040 ------- 2 1.0 3.0 35 66
r 0.1594 3 0 ack 40 ------- 2 3.0 1.0 26 57
+ 0.1594 0 1 ack 40 ------- 2 3.0 1.0 26 57
- 0.1594 0 1 ack 40 ------- 2 3.0 1.0 26 57
r 0.15944 0 1 ack 40 ------- 2 3.0 1.0 20 51
+ 0.15944 1 2 tcp 1040 ------- 2 1.0 3.0 40 71
- 0.15944 1 2 tcp 1040 ------- 2 1.0 3.0 36 67
r 0.160232 3 0 ack 40 ------- 2 3.0 1.0 27 58
+ 0.160232 0 1 ack 40 ------- 2 3.0 1.0 27 58
- 0.160232 0 1 ack 40 ------- 2 3.0 1.0 27 58
r 0.160272 0 1 ack 40 ------- 2 3.0 1.0 21 52
+ 0.160272 1 2 tcp 1040 ------- 2 1.0 3.0 41 72
- 0.160272 1 2 tcp 1040 ------- 2 1.0 3.0 37 68
r 0.161064 3 0 ack 40 ------- 2 3.0 1.0 28 59
+ 0.161064 0 1 ack 40 ------- 2 3.0 1.0 28 59
- 0.161064 0 1 ack 40 ------- 2 3.0 1.0 28 59
r 0.161104 0 1 ack 40 ------- 2 3.0 1.0 22 53
+ 0.161104 1 2 tcp 1040 ------- 2 1.0 3.0 42 73
- 0.161104 1 2 tcp 1040 ------- 2 1.0 3.0 38 69
r 0.161112 1 2 tcp 1040 ------- 2 1.0 3.0 31 62
+ 0.161112 2 3 tcp 1040 ------- 2 1.0 3.0 31 62
- 0.161112 2 3 tcp 1040 ------- 2 1.0 3.0 31 62
r 0.161896 3 0 ack 40 ------- 2 3.0 1.0 29 60
+ 0.161896 0 1 ack 40 ------- 2 3.0 1.0 29 60
- 0.161896 0 1 ack 40 ------- 2 3.0 1.0 29 60
r 0.161936 0 1 ack 40 ------- 2 3.0 1.0 23 54
+ 0.161936 1 2 tcp 1040 ------- 2 1.0 3.0 43 74
- 0.161936 1 2 tcp 1040 ------- 2 1.0 3.0 39 70
r 0.161944 1 2 tcp 1040 ------- 2 1.0 3.0 32 63
+ 0.161944 2 3 tcp 1040 ------- 2 1.0 3.0 32 63
- 0.161944 2 3 tcp 1040 ------- 2 1.0 3.0 32 63
r 0.162728 3 0 ack 40 ------- 2 3.0 1.0 30 61
+ 0.162728 0 1 ack 40 ------- 2 3.0 1.0 30 61
- 0.162728 0 1 ack 40 ------- 2 3.0 1.0 30 61
r 0.162768 0 1 ack 40 ------- 2 3.0 1.0 24 55
+ 0.162768 1 2 tcp 1040 ------- 2 1.0 3.0 44 75
- 0.162768 1 2 tcp 1040 ------- 2 1.0 3.0 40 71
r 0.162776 1 2 tcp 1040 ------- 2 1.0 3.0 33 64
+ 0.162776 2 3 tcp 1040 ------- 2 1.0 3.0 33 64
- 0.162776 2 3 tcp 1040 ------- 2 1.0 3.0 33 64
r 0.1636 0 1 ack 40 ------- 2 3.0 1.0 25 56
+ 0.1636 1 2 tcp 1040 ------- 2 1.0 3.0 45 76
- 0.1636 1 2 tcp 1040 ------- 2 1.0 3.0 41 72
r 0.163608 1 2 tcp 1040 ------- 2 1.0 3.0 34 65
+ 0.163608 2 3 tcp 1040 ------- 2 1.0 3.0 34 65
- 0.163608 2 3 tcp 1040 ------- 2 1.0 3.0 34 65
r 0.164432 0 1 ack 40 ------- 2 3.0 1.0 26 57
+ 0.164432 1 2 tcp 1040 ------- 2 1.0 3.0 46 77
- 0.164432 1 2 tcp 1040 ------- 2 1.0 3.0 42 73
r 0.16444 1 2 tcp 1040 ------- 2 1.0 3.0 35 66
+ 0.16444 2 3 tcp 1040 ------- 2 1.0 3.0 35 66
- 0.16444 2 3 tcp 1040 ------- 2 1.0 3.0 35 66
r 0.165264 0 1 ack 40 ------- 2 3.0 1.0 27 58
+ 0.165264 1 2 tcp 1040 ------- 2 1.0 3.0 47 78
- 0.165264 1 2 tcp 1040 ------- 2 1.0 3.0 43 74
r 0.165272 1 2 tcp 1040 ------- 2 1.0 3.0 36 67
+ 0.165272 2 3 tcp 1040 ------- 2 1.0 3.0 36 67
- 0.165272 2 3 tcp 1040 ------- 2 1.0 3.0 36 67
r 0.166096 0 1 ack 40 ------- 2 3.0 1.0 28 59
+ 0.166096 1 2 tcp 1040 ------- 2 1.0 3.0 48 79
- 0.166096 1 2 tcp 1040 ------- 2 1.0 3.0 44 75
r 0.166104 1 2 tcp 1040 ------- 2 1.0 3.0 37 68
+ 0.166104 2 3 tcp 1040 ------- 2 1.0 3.0 37 68
- 0.166104 2 3 tcp 1040 ------- 2 1.0 3.0 37 68
r 0.166928 0 1 ack 40 ------- 2 3.0 1.0 29 60
+ 0.166928 1 2 tcp 1040 ------- 2 1.0 3.0 49 80
- 0.166928 1 2 tcp 1040 ------- 2 1.0 3.0 45 76
r 0.166936 1 2 tcp 1040 ------- 2 1.0 3.0 38 69
+ 0.166936 2 3 tcp 1040 ------- 2 1.0 3.0 38 69
- 0.166936 2 3 tcp 1040 ------- 2 1.0 3.0 38 69
r 0.16776 0 1 ack 40 ------- 2 3.0 1.0 30 61
+ 0.16776 1 2 tcp 1040 ------- 2 1.0 3.0 50 81
- 0.16776 1 2 tcp 1040 ------- 2 1.0 3.0 46 77
r 0.167768 1 2 tcp 1040 ------- 2 1.0 3.0 39 70
+ 0.167768 2 3 tcp 1040 ------- 2 1.0 3.0 39 70
- 0.167768 2 3 tcp 1040 ------- 2 1.0 3.0 39 70
- 0.168592 1 2 tcp 1040 ------- 2 1.0 3.0 47 78
r 0.1686 1 2 tcp 1040 ------- 2 1.0 3.0 40 71
+ 0.1686 2 3 tcp 1040 ------- 2 1.0 3.0 40 71
- 0.1686 2 3 tcp 1040 ------- 2 1.0 3.0 40 71
- 0.169424 1 2 tcp 1040 ------- 2 1.0 3.0 48 79
r 0.169432 1 2 tcp 1040 ------- 2 1.0 3.0 41 72
+ 0.169432 2 3 tcp 1040 ------- 2 1.0 3.0 41 72
- 0.169432 2 3 tcp 1040 ------- 2 1.0 3.0 41 72
- 0.170256 1 2 tcp 1040 ------- 2 1.0 3.0 49 80
r 0.170264 1 2 tcp 1040 ------- 2 1.0 3.0 42 73
+ 0.170264 2 3 tcp 1040 ------- 2 1.0 3.0 42 73
- 0.170264 2 3 tcp 1040 ------- 2 1.0 3.0 42 73
- 0.171088 1 2 tcp 1040 ------- 2 1.0 3.0 50 81
r 0.171096 1 2 tcp 1040 ------- 2 1.0 3.0 43 74
+ 0.171096 2 3 tcp 1040 ------- 2 1.0 3.0 43 74
- 0.171096 2 3 tcp 1040 ------- 2 1.0 3.0 43 74
r 0.171528 2 3 tcp 1040 ------- 2 1.0 3.0 31 62
+ 0.171528 3 0 ack 40 ------- 2 3.0 1.0 31 82
- 0.171528 3 0 ack 40 ------- 2 3.0 1.0 31 82
r 0.171928 1 2 tcp 1040 ------- 2 1.0 3.0 44 75
+ 0.171928 2 3 tcp 1040 ------- 2 1.0 3.0 44 75
- 0.171928 2 3 tcp 1040 ------- 2 1.0 3.0 44 75
r 0.17236 2 3 tcp 1040 ------- 2 1.0 3.0 32 63
+ 0.17236 3 0 ack 40 ------- 2 3.0 1.0 32 83
- 0.17236 3 0 ack 40 ------- 2 3.0 1.0 32 83
r 0.17276 1 2 tcp 1040 ------- 2 1.0 3.0 45 76
+ 0.17276 2 3 tcp 1040 ------- 2 1.0 3.0 45 76
- 0.17276 2 3 tcp 1040 ------- 2 1.0 3.0 45 76
r 0.173192 2 3 tcp 1040 ------- 2 1.0 3.0 33 64
+ 0.173192 3 0 ack 40 ------- 2 3.0 1.0 33 84
- 0.173192 3 0 ack 40 ------- 2 3.0 1.0 33 84
r 0.173592 1 2 tcp 1040 ------- 2 1.0 3.0 46 77
+ 0.173592 2 3 tcp 1040 ------- 2 1.0 3.0 46 77
- 0.173592 2 3 tcp 1040 ------- 2 1.0 3.0 46 77
r 0.174024 2 3 tcp 1040 ------- 2 1.0 3.0 34 65
+ 0.174024 3 0 ack 40 ------- 2 3.0 1.0 34 85
- 0.174024 3 0 ack 40 ------- 2 3.0 1.0 34 85
r 0.174424 1 2 tcp 1040 ------- 2 1.0 3.0 47 78
+ 0.174424 2 3 tcp 1040 ------- 2 1.0 3.0 47 78
- 0.174424 2 3 tcp 1040 ------- 2 1.0 3.0 47 78
r 0.174856 2 3 tcp 1040 ------- 2 1.0 3.0 35 66
+ 0.174856 3 0 ack 40 ------- 2 3.0 1.0 35 86
- 0.174856 3 0 ack 40 ------- 2 3.0 1.0 35 86
r 0.175256 1 2 tcp 1040 ------- 2 1.0 3.0 48 79
+ 0.175256 2 3 tcp 1040 ------- 2 1.0 3.0 48 79
- 0.175256 2 3 tcp 1040 ------- 2 1.0 3.0 48 79
r 0.175688 2 3 tcp 1040 ------- 2 1.0 3.0 36 67
+ 0.175688 3 0 ack 40 ------- 2 3.0 1.0 36 87
- 0.175688 3 0 ack 40 ------- 2 3.0 1.0 36 87
r 0.176088 1 2 tcp 1040 ------- 2 1.0 3.0 49 80
+ 0.176088 2 3 tcp 1040 ------- 2 1.0 3.0 49 80
- 0.176088 2 3 tcp 1040 ------- 2 1.0 3.0 49 80
r 0.17652 2 3 tcp 1040 ------- 2 1.0 3.0 37 68
+ 0.17652 3 0 ack 40 ------- 2 3.0 1.0 37 88
- 0.17652 3 0 ack 40 ------- 2 3.0 1.0 37 88
r 0.17692 1 2 tcp 1040 ------- 2 1.0 3.0 50 81
+ 0.17692 2 3 tcp 1040 ------- 2 1.0 3.0 50 81
- 0.17692 2 3 tcp 1040 ------- 2 1.0 3.0 50 81
r 0.177352 2 3 tcp 1040 ------- 2 1.0 3.0 38 69
+ 0.177352 3 0 ack 40 ------- 2 3.0 1.0 38 89
- 0.177352 3 0 ack 40 ------- 2 3.0 1.0 38 89
r 0.178184 2 3 tcp 1040 ------- 2 1.0 3.0 39 70
+ 0.178184 3 0 ack 40 ------- 2 3.0 1.0 39 90
- 0.178184 3 0 ack 40 ------- 2 3.0 1.0 39 90
r 0.179016 2 3 tcp 1040 ------- 2 1.0 3.0 40 71
+ 0.179016 3 0 ack 40 ------- 2 3.0 1.0 40 91
- 0.179016 3 0 ack 40 ------- 2 3.0 1.0 40 91
r 0.179848 2 3 tcp 1040 ------- 2 1.0 3.0 41 72
+ 0.179848 3 0 ack 40 ------- 2 3.0 1.0 41 92
- 0.179848 3 0 ack 40 ------- 2 3.0 1.0 41 92
r 0.18068 2 3 tcp 1040 ------- 2 1.0 3.0 42 73
+ 0.18068 3 0 ack 40 ------- 2 3.0 1.0 42 93
- 0.18068 3 0 ack 40 ------- 2 3.0 1.0 42 93
r 0.181512 2 3 tcp 1040 ------- 2 1.0 3.0 43 74
+ 0.181512 3 0 ack 40 ------- 2 3.0 1.0 43 94
- 0.181512 3 0 ack 40 ------- 2 3.0 1.0 43 94
r 0.181544 3 0 ack 40 ------- 2 3.0 1.0 31 82
+ 0.181544 0 1 ack 40 ------- 2 3.0 1.0 31 82
- 0.181544 0 1 ack 40 ------- 2 3.0 1.0 31 82
r 0.182344 2 3 tcp 1040 ------- 2 1.0 3.0 44 75
+ 0.182344 3 0 ack 40 ------- 2 3.0 1.0 44 95
- 0.182344 3 0 ack 40 ------- 2 3.0 1.0 44 95
r 0.182376 3 0 ack 40 ------- 2 3.0 1.0 32 83
+ 0.182376 0 1 ack 40 ------- 2 3.0 1.0 32 83
- 0.182376 0 1 ack 40 ------- 2 3.0 1.0 32 83
r 0.183176 2 3 tcp 1040 ------- 2 1.0 3.0 45 76
+ 0.183176 3 0 ack 40 ------- 2 3.0 1.0 45 96
- 0.183176 3 0 ack 40 ------- 2 3.0 1.0 45 96
r 0.183208 3 0 ack 40 ------- 2 3.0 1.0 33 84
+ 0.183208 0 1 ack 40 ------- 2 3.0 1.0 33 84
- 0.183208 0 1 ack 40 ------- 2 3.0 1.0 33 84
r 0.184008 2 3 tcp 1040 ------- 2 1.0 3.0 46 77
+ 0.184008 3 0 ack 40 ------- 2 3.0 1.0 46 97
- 0.184008 3 0 ack 40 ------- 2 3.0 1.0 46 97
r 0.18404 3 0 ack 40 ------- 2 3.0 1.0 34 85
+ 0.18404 0 1 ack 40 ------- 2 3.0 1.0 34 85
- 0.18404 0 1 ack 40 ------- 2 3.0 1.0 34 85
r 0.18484 2 3 tcp 1040 ------- 2 1.0 3.0 47 78
+ 0.18484 3 0 ack 40 ------- 2 3.0 1.0 47 98
- 0.18484 3 0 ack 40 ------- 2 3.0 1.0 47 98
r 0.184872 3 0 ack 40 ------- 2 3.0 1.0 35 86
+ 0.184872 0 1 ack 40 ------- 2 3.0 1.0 35 86
- 0.184872 0 1 ack 40 ------- 2 3.0 1.0 35 86
r 0.185672 2 3 tcp 1040 ------- 2 1.0 3.0 48 79
+ 0.185672 3 0 ack 40 ------- 2 3.0 1.0 48 99
- 0.185672 3 0 ack 40 ------- 2 3.0 1.0 48 99
r 0.185704 3 0 ack 40 ------- 2 3.0 1.0 36 87
+ 0.185704 0 1 ack 40 ------- 2 3.0 1.0 36 87
- 0.185704 0 1 ack 40 ------- 2 3.0 1.0 36 87
r 0.186504 2 3 tcp 1040 ------- 2 1.0 3.0 49 80
+ 0.186504 3 0 ack 40 ------- 2 3.0 1.0 49 100
- 0.186504 3 0 ack 40 ------- 2 3.0 1.0 49 100
r 0.186536 3 0 ack 40 ------- 2 3.0 1.0 37 88
+ 0.186536 0 1 ack 40 ------- 2 3.0 1.0 37 88
- 0.186536 0 1 ack 40 ------- 2 3.0 1.0 37 88
r 0.186576 0 1 ack 40 ------- 2 3.0 1.0 31 82
+ 0.186576 1 2 tcp 1040 ------- 2 1.0 3.0 51 101
- 0.186576 1 2 tcp 1040 ------- 2 1.0 3.0 51 101
r 0.187336 2 3 tcp 1040 ------- 2 1.0 3.0 50 81
+ 0.187336 3 0 ack 40 ------- 2 3.0 1.0 50 102
- 0.187336 3 0 ack 40 ------- 2 3.0 1.0 50 102
r 0.187368 3 0 ack 40 ------- 2 3.0 1.0 38 89
+ 0.187368 0 1 ack 40 ------- 2 3.0 1.0 38 89
- 0.187368 0 1 ack 40 ------- 2 3.0 1.0 38 89
r 0.187408 0 1 ack 40 ------- 2 3.0 1.0 32 83
+ 0.187408 1 2 tcp 1040 ------- 2 1.0 3.0 52 103
- 0.187408 1 2 tcp 1040 ------- 2 1.0 3.0 52 103
r 0.1882 3 0 ack 40 ------- 2 3.0 1.0 39 90
+ 0.1882 0 1 ack 40 ------- 2 3.0 1.0 39 90
- 0.1882 0 1 ack 40 ------- 2 3.0 1.0 39 90
r 0.18824 0 1 ack 40 ------- 2 3.0 1.0 33 84
+ 0.18824 1 2 tcp 1040 ------- 2 1.0 3.0 53 104
- 0.18824 1 2 tcp 1040 ------- 2 1.0 3.0 53 104
r 0.189032 3 0 ack 40 ------- 2 3.0 1.0 40 91
+ 0.189032 0 1 ack 40 ------- 2 3.0 1.0 40 91
- 0.189032 0 1 ack 40 ------- 2 3.0 1.0 40 91
r 0.189072 0 1 ack 40 ------- 2 3.0 1.0 34 85
+ 0.189072 1 2 tcp 1040 ------- 2 1.0 3.0 54 105
- 0.189072 1 2 tcp 1040 ------- 2 1.0 3.0 54 105
r 0.189864 3 0 ack 40 ------- 2 3.0 1.0 41 92
+ 0.189864 0 1 ack 40 ------- 2 3.0 1.0 41 92
- 0.189864 0 1 ack 40 ------- 2 3.0 1.0 41 92
r 0.189904 0 1 ack 40 ------- 2 3.0 1.0 35 86
+ 0.189904 1 2 tcp 1040 ------- 2 1.0 3.0 55 106
- 0.189904 1 2 tcp 1040 ------- 2 1.0 3.0 55 106
r 0.190696 3 0 ack 40 ------- 2 3.0 1.0 42 93
+ 0.190696 0 1 ack 40 ------- 2 3.0 1.0 42 93
- 0.190696 0 1 ack 40 ------- 2 3.0 1.0 42 93
r 0.190736 0 1 ack 40 ------- 2 3.0 1.0 36 87
+ 0.190736 1 2 tcp 1040 ------- 2 1.0 3.0 56 107
- 0.190736 1 2 tcp 1040 ------- 2 1.0 3.0 56 107
r 0.191528 3 0 ack 40 ------- 2 3.0 1.0 43 94
+ 0.191528 0 1 ack 40 ------- 2 3.0 1.0 43 94
- 0.191528 0 1 ack 40 ------- 2 3.0 1.0 43 94
r 0.191568 0 1 ack 40 ------- 2 3.0 1.0 37 88
+ 0.191568 1 2 tcp 1040 ------- 2 1.0 3.0 57 108
- 0.191568 1 2 tcp 1040 ------- 2 1.0 3.0 57 108
r 0.19236 3 0 ack 40 ------- 2 3.0 1.0 44 95
+ 0.19236 0 1 ack 40 ------- 2 3.0 1.0 44 95
- 0.19236 0 1 ack 40 ------- 2 3.0 1.0 44 95
r 0.1924 0 1 ack 40 ------- 2 3.0 1.0 38 89
+ 0.1924 1 2 tcp 1040 ------- 2 1.0 3.0 58 109
- 0.1924 1 2 tcp 1040 ------- 2 1.0 3.0 58 109
r 0.192408 1 2 tcp 1040 ------- 2 1.0 3.0 51 101
+ 0.192408 2 3 tcp 1040 ------- 2 1.0 3.0 51 101
- 0.192408 2 3 tcp 1040 ------- 2 1.0 3.0 51 101
r 0.193192 3 0 ack 40 ------- 2 3.0 1.0 45 96
+ 0.193192 0 1 ack 40 ------- 2 3.0 1.0 45 96
- 0.193192 0 1 ack 40 ------- 2 3.0 1.0 45 96
r 0.193232 0 1 ack 40 ------- 2 3.0 1.0 39 90
+ 0.193232 1 2 tcp 1040 ------- 2 1.0 3.0 59 110
- 0.193232 1 2 tcp 1040 ------- 2 1.0 3.0 59 110
r 0.19324 1 2 tcp 1040 ------- 2 1.0 3.0 52 103
+ 0.19324 2 3 tcp 1040 ------- 2 1.0 3.0 52 103
- 0.19324 2 3 tcp 1040 ------- 2 1.0 3.0 52 103
r 0.194024 3 0 ack 40 ------- 2 3.0 1.0 46 97
+ 0.194024 0 1 ack 40 ------- 2 3.0 1.0 46 97
- 0.194024 0 1 ack 40 ------- 2 3.0 1.0 46 97
r 0.194064 0 1 ack 40 ------- 2 3.0 1.0 40 91
+ 0.194064 1 2 tcp 1040 ------- 2 1.0 3.0 60 111
- 0.194064 1 2 tcp 1040 ------- 2 1.0 3.0 60 111
r 0.194072 1 2 tcp 1040 ------- 2 1.0 3.0 53 104
+ 0.194072 2 3 tcp 1040 ------- 2 1.0 3.0 53 104
- 0.194072 2 3 tcp 1040 ------- 2 1.0 3.0 53 104
r 0.194856 3 0 ack 40 ------- 2 3.0 1.0 47 98
+ 0.194856 0 1 ack 40 ------- 2 3.0 1.0 47 98
- 0.194856 0 1 ack 40 ------- 2 3.0 1.0 47 98
r 0.194896 0 1 ack 40 ------- 2 3.0 1.0 41 92
+ 0.194896 1 2 tcp 1040 ------- 2 1.0 3.0 61 112
- 0.194896 1 2 tcp 1040 ------- 2 1.0 3.0 61 112
r 0.194904 1 2 tcp 1040 ------- 2 1.0 3.0 54 105
+ 0.194904 2 3 tcp 1040 ------- 2 1.0 3.0 54 105
- 0.194904 2 3 tcp 1040 ------- 2 1.0 3.0 54 105
r 0.195688 3 0 ack 40 ------- 2 3.0 1.0 48 99
+ 0.195688 0 1 ack 40 ------- 2 3.0 1.0 48 99
- 0.195688 0 1 ack 40 ------- 2 3.0 1.0 48 99
r 0.195728 0 1 ack 40 ------- 2 3.0 1.0 42 93
+ 0.195728 1 2 tcp 1040 ------- 2 1.0 3.0 62 113
- 0.195728 1 2 tcp 1040 ------- 2 1.0 3.0 62 113
r 0.195736 1 2 tcp 1040 ------- 2 1.0 3.0 55 106
+ 0.195736 2 3 tcp 1040 ------- 2 1.0 3.0 55 106
- 0.195736 2 3 tcp 1040 ------- 2 1.0 3.0 55 106
r 0.19652 3 0 ack 40 ------- 2 3.0 1.0 49 100
+ 0.19652 0 1 ack 40 ------- 2 3.0 1.0 49 100
- 0.19652 0 1 ack 40 ------- 2 3.0 1.0 49 100
r 0.19656 0 1 ack 40 ------- 2 3.0 1.0 43 94
+ 0.19656 1 2 tcp 1040 ------- 2 1.0 3.0 63 114
- 0.19656 1 2 tcp 1040 ------- 2 1.0 3.0 63 114