V -t * -v 1.0a5 -a 0
A -t * -n 1 -p 0 -o 0x7fffffff -c 30 -a 1
A -t * -h 1 -m 1073741823 -s 0
n -t * -a 0 -s 0 -S UP -v circle -c black -i black
n -t * -a 1 -s 1 -S UP -v circle -c red -i red
n -t * -a 2 -s 2 -S UP -v circle -c black -i black
n -t * -a 3 -s 3 -S UP -v circle -c blue -i blue
l -t * -s 0 -d 1 -S UP -r 10000000 -D 0.0050000000000000001 -c black
l -t * -s 1 -d 2 -S UP -r 10000000 -D 0.0050000000000000001 -c black
l -t * -s 2 -d 3 -S UP -r 20000000 -D 0.01 -c black
l -t * -s 3 -d 0 -S UP -r 20000000 -D 0.01 -c black
+ -t 0 -s 1 -d 2 -p tcp -e 40 -c 2 -i 0 -a 2 -x {1.0 3.0 0 ------- null}
- -t 0 -s 1 -d 2 -p tcp -e 40 -c 2 -i 0 -a 2 -x {1.0 3.0 0 ------- null}
h -t 0 -s 1 -d 2 -p tcp -e 40 -c 2 -i 0 -a 2 -x {1.0 3.0 -1 ------- null}
r -t 0.005032 -s 1 -d 2 -p tcp -e 40 -c 2 -i 0 -a 2 -x {1.0 3.0 0 ------- null}
+ -t 0.005032 -s 2 -d 3 -p tcp -e 40 -c 2 -i 0 -a 2 -x {1.0 3.0 0 ------- null}
- -t 0.005032 -s 2 -d 3 -p tcp -e 40 -c 2 -i 0 -a 2 -x {1.0 3.0 0 ------- null}
h -t 0.005032 -s 2 -d 3 -p tcp -e 40 -c 2 -i 0 -a 2 -x {1.0 3.0 -1 ------- null}
r -t 0.015048 -s 2 -d 3 -p tcp -e 40 -c 2 -i 0 -a 2 -x {1.0 3.0 0 ------- null}
+ -t 0.015048 -s 3 -d 0 -p ack -e 40 -c 2 -i 1 -a 2 -x {3.0 1.0 0 ------- null}
- -t 0.015048 -s 3 -d 0 -p ack -e 40 -c 2 -i 1 -a 2 -x {3.0 1.0 0 ------- null}
h -t 0.015048 -s 3 -d 0 -p ack -e 40 -c 2 -i 1 -a 2 -x {3.0 1.0 -1 ------- null}
r -t 0.025064 -s 3 -d 0 -p ack -e 40 -c 2 -i 1 -a 2 -x {3.0 1.0 0 ------- null}
+ -t 0.025064 -s 0 -d 1 -p ack -e 40 -c 2 -i 1 -a 2 -x {3.0 1.0 0 ------- null}
- -t 0.025064 -s 0 -d 1 -p ack -e 40 -c 2 -i 1 -a 2 -x {3.0 1.0 0 ------- null}
h -t 0.025064 -s 0 -d 1 -p ack -e 40 -c 2 -i 1 -a 2 -x {3.0 1.0 -1 ------- null}
r -t 0.030096 -s 0 -d 1 -p ack -e 40 -c 2 -i 1 -a 2 -x {3.0 1.0 0 ------- null}
+ -t 0.030096 -s 1 -d 2 -p tcp -e 1040 -c 2 -i 2 -a 2 -x {1.0 3.0 1 ------- null}
- -t 0.030096 -s 1 -d 2 -p tcp -e 1040 -c 2 -i 2 -a 2 -x {1.0 3.0 1 ------- null}
h -t 0.030096 -s 1 -d 2 -p tcp -e 1040 -c 2 -i 2 -a 2 -x {1.0 3.0 -1 ------- null}
+ -t 0.030096 -s 1 -d 2 -p tcp -e 1040 -c 2 -i 3 -a 2 -x {1.0 3.0 2 ------- null}
- -t 0.030928 -s 1 -d 2 -p tcp -e 1040 -c 2 -i 3 -a 2 -x {1.0 3.0 2 ------- null}
h -t 0.030928 -s 1 -d 2 -p tcp -e 1040 -c 2 -i 3 -a 2 -x {1.0 3.0 -1 ------- null}
r -t 0.035928 -s 1 -d 2 -p tcp -e 1040 -c 2 -i 2 -a 2 -x {1.0 3.0 1 ------- null}
+ -t 0.035928 -s 2 -d 3 -p tcp -e 1040 -c 2 -i 2 -a 2 -x {1.0 3.0 1 ------- null}
- -t 0.035928 -s 2 -d 3 -p tcp -e 1040 -c 2 -i 2 -a 2 -x {1.0 3.0 1 ------- null}
h -t 0.035928 -s 2 -d 3 -p tcp -e 1040 -c 2 -i 2 -a 2 -x {1.0 3.0 -1 ------- null}
r -t 0.03676 -s 1 -d 2 -p tcp -e 1040 -c 2 -i 3 -a 2 -x {1.0 3.0 2 ------- null}
+ -t 0.03676 -s 2 -d 3 -p tcp -e 1040 -c 2 -i 3 -a 2 -x {1.0 3.0 2 ------- null}
- -t 0.03676 -s 2 -d 3 -p tcp -e 1040 -c 2 -i 3 -a 2 -x {1.0 3.0 2 ------- null}
h -t 0.03676 -s 2 -d 3 -p tcp -e 1040 -c 2 -i 3 -a 2 -x {1.0 3.0 -1 ------- null}
r -t 0.046344 -s 2 -d 3 -p tcp -e 1040 -c 2 -i 2 -a 2 -x {1.0 3.0 1 ------- null}
+ -t 0.046344 -s 3 -d 0 -p ack -e 40 -c 2 -i 4 -a 2 -x {3.0 1.0 1 ------- null}
- -t 0.046344 -s 3 -d 0 -p ack -e 40 -c 2 -i 4 -a 2 -x {3.0 1.0 1 ------- null}
h -t 0.046344 -s 3 -d 0 -p ack -e 40 -c 2 -i 4 -a 2 -x {3.0 1.0 -1 ------- null}
r -t 0.047176 -s 2 -d 3 -p tcp -e 1040 -c 2 -i 3 -a 2 -x {1.0 3.0 2 ------- null}
+ -t 0.047176 -s 3 -d 0 -p ack -e 40 -c 2 -i 5 -a 2 -x {3.0 1.0 2 ------- null}
- -t 0.047176 -s 3 -d 0 -p ack -e 40 -c 2 -i 5 -a 2 -x {3.0 1.0 2 ------- null}
h -t 0.047176 -s 3 -d 0 -p ack -e 40 -c 2 -i 5 -a 2 -x {3.0 1.0 -1 ------- null}
r -t 0.05636 -s 3 -d 0 -p ack -e 40 -c 2 -i 4 -a 2 -x {3.0 1.0 1 ------- null}
+ -t 0.05636 -s 0 -d 1 -p ack -e 40 -c 2 -i 4 -a 2 -x {3.0 1.0 1 ------- null}
- -t 0.05636 -s 0 -d 1 -p ack -e 40 -c 2 -i 4 -a 2 -x {3.0 1.0 1 ------- null}
h -t 0.05636 -s 0 -d 1 -p ack -e 40 -c 2 -i 4 -a 2 -x {3.0 1.0 -1 ------- null}
r -t 0.057192 -s 3 -d 0 -p ack -e 40 -c 2 -i 5 -a 2 -x {3.0 1.0 2 ------- null}
+ -t 0.057192 -s 0 -d 1 -p ack -e 40 -c 2 -i 5 -a 2 -x {3.0 1.0 2 ------- null}
- -t 0.057192 -s 0 -d 1 -p ack -e 40 -c 2 -i 5 -a 2 -x {3.0 1.0 2 ------- null}
h -t 0.057192 -s 0 -d 1 -p ack -e 40 -c 2 -i 5 -a 2 -x {3.0 1.0 -1 ------- null}
r -t 0.061392 -s 0 -d 1 -p ack -e 40 -c 2 -i 4 -a 2 -x {3.0 1.0 1 ------- null}
+ -t 0.061392 -s 1 -d 2 -p tcp -e 1040 -c 2 -i 6 -a 2 -x {1.0 3.0 3 ------- null}
- -t 0.061392 -s 1 -d 2 -p tcp -e 1040 -c 2 -i 6 -a 2 -x {1.0 3.0 3 ------- null}
h -t 0.061392 -s 1 -d 2 -p tcp -e 1040 -c 2 -i 6 -a 2 -x {1.0 3.0 -1 ------- null}
+ -t 0.061392 -s 1 -d 2 -p tcp -e 1040 -c 2 -i 7 -a 2 -x {1.0 3.0 4 ------- null}
r -t 0.062224 -s 0 -d 1 -p ack -e 40 -c 2 -i 5 -a 2 -x {3.0 1.0 2 ------- null}
+ -t 0.062224 -s 1 -d 2 -p tcp -e 1040 -c 2 -i 8 -a 2 -x {1.0 3.0 5 ------- null}
+ -t 0.062224 -s 1 -d 2 -p tcp -e 1040 -c 2 -i 9 -a 2 -x {1.0 3.0 6 ------- null}
- -t 0.062224 -s 1 -d 2 -p tcp -e 1040 -c 2 -i 7 -a 2 -x {1.0 3.0 4 ------- null}
h -t 0.062224 -s 1 -d 2 -p tcp -e 1040 -c 2 -i 7 -a 2 -x {1.0 3.0 -1 ------- null}
- -t 0.063056 -s 1 -d 2 -p tcp -e 1040 -c 2 -i 8 -a 2 -x {1.0 3.0 5 ------- null}
h -t 0.063056 -s 1 -d 2 -p tcp -e 1040 -c 2 -i 8 -a 2 -x {1.0 3.0 -1 ------- null}
- -t 0.063888 -s 1 -d 2 -p tcp -e 1040 -c 2 -i 9 -a 2 -x {1.0 3.0 6 ------- null}
h -t 0.063888 -s 1 -d 2 -p tcp -e 1040 -c 2 -i 9 -a 2 -x {1.0 3.0 -1 ------- null}
r -t 0.067224 -s 1 -d 2 -p tcp -e 1040 -c 2 -i 6 -a 2 -x {1.0 3.0 3 ------- null}
+ -t 0.067224 -s 2 -d 3 -p tcp -e 1040 -c 2 -i 6 -a 2 -x {1.0 3.0 3 ------- null}
- -t 0.067224 -s 2 -d 3 -p tcp -e 1040 -c 2 -i 6 -a 2 -x {1.0 3.0 3 ------- null}
h -t 0.067224 -s 2 -d 3 -p tcp -e 1040 -c 2 -i 6 -a 2 -x {1.0 3.0 -1 ------- null}
r -t 0.068056 -s 1 -d 2 -p tcp -e 1040 -c 2 -i 7 -a 2 -x {1.0 3.0 4 ------- null}
+ -t 0.068056 -s 2 -d 3 -p tcp -e 1040 -c 2 -i 7 -a 2 -x {1.0 3.0 4 ------- null}
- -t 0.068056 -s 2 -d 3 -p tcp -e 1040 -c 2 -i 7 -a 2 -x {1.0 3.0 4 ------- null}
h -t 0.068056 -s 2 -d 3 -p tcp -e 1040 -c 2 -i 7 -a 2 -x {1.0 3.0 -1 ------- null}
r -t 0.068888 -s 1 -d 2 -p tcp -e 1040 -c 2 -i 8 -a 2 -x {1.0 3.0 5 ------- null}
+ -t 0.068888 -s 2 -d 3 -p tcp -e 1040 -c 2 -i 8 -a 2 -x {1.0 3.0 5 ------- null}
- -t 0.068888 -s 2 -d 3 -p tcp -e 1040 -c 2 -i 8 -a 2 -x {1.0 3.0 5 ------- null}
h -t 0.068888 -s 2 -d 3 -p tcp -e 1040 -c 2 -i 8 -a 2 -x {1.0 3.0 -1 ------- null}
r -t 0.06972 -s 1 -d 2 -p tcp -e 1040 -c 2 -i 9 -a 2 -x {1.0 3.0 6 ------- null}
+ -t 0.06972 -s 2 -d 3 -p tcp -e 1040 -c 2 -i 9 -a 2 -x {1.0 3.0 6 ------- null}
- -t 0.06972 -s 2 -d 3 -p tcp -e 1040 -c 2 -i 9 -a 2 -x {1.0 3.0 6 ------- null}
h -t 0.06972 -s 2 -d 3 -p tcp -e 1040 -c 2 -i 9 -a 2 -x {1.0 3.0 -1 ------- null}
r -t 0.07764 -s 2 -d 3 -p tcp -e 1040 -c 2 -i 6 -a 2 -x {1.0 3.0 3 ------- null}
+ -t 0.07764 -s 3 -d 0 -p ack -e 40 -c 2 -i 10 -a 2 -x {3.0 1.0 3 ------- null}
- -t 0.07764 -s 3 -d 0 -p ack -e 40 -c 2 -i 10 -a 2 -x {3.0 1.0 3 ------- null}
h -t 0.07764 -s 3 -d 0 -p ack -e 40 -c 2 -i 10 -a 2 -x {3.0 1.0 -1 ------- null}
r -t 0.078472 -s 2 -d 3 -p tcp -e 1040 -c 2 -i 7 -a 2 -x {1.0 3.0 4 ------- null}
+ -t 0.078472 -s 3 -d 0 -p ack -e 40 -c 2 -i 11 -a 2 -x {3.0 1.0 4 ------- null}
- -t 0.078472 -s 3 -d 0 -p ack -e 40 -c 2 -i 11 -a 2 -x {3.0 1.0 4 ------- null}
h -t 0.078472 -s 3 -d 0 -p ack -e 40 -c 2 -i 11 -a 2 -x {3.0 1.0 -1 ------- null}
r -t 0.079304 -s 2 -d 3 -p tcp -e 1040 -c 2 -i 8 -a 2 -x {1.0 3.0 5 ------- null}
+ -t 0.079304 -s 3 -d 0 -p ack -e 40 -c 2 -i 12 -a 2 -x {3.0 1.0 5 ------- null}
- -t 0.079304 -s 3 -d 0 -p ack -e 40 -c 2 -i 12 -a 2 -x {3.0 1.0 5 ------- null}
h -t 0.079304 -s 3 -d 0 -p ack -e 40 -c 2 -i 12 -a 2 -x {3.0 1.0 -1 ------- null}
r -t 0.080136 -s 2 -d 3 -p tcp -e 1040 -c 2 -i 9 -a 2 -x {1.0 3.0 6 ------- null}
+ -t 0.080136 -s 3 -d 0 -p ack -e 40 -c 2 -i 13 -a 2 -x {3.0 1.0 6 ------- null}
- -t 0.080136 -s 3 -d 0 -p ack -e 40 -c 2 -i 13 -a 2 -x {3.0 1.0 6 ------- null}
h -t 0.080136 -s 3 -d 0 -p ack -e 40 -c 2 -i 13 -a 2 -x {3.0 1.0 -1 ------- null}
r -t 0.087656 -s 3 -d 0 -p ack -e 40 -c 2 -i 10 -a 2 -x {3.0 1.0 3 ------- null}
+ -t 0.087656 -s 0 -d 1 -p ack -e 40 -c 2 -i 10 -a 2 -x {3.0 1.0 3 ------- null}
- -t 0.087656 -s 0 -d 1 -p ack -e 40 -c 2 -i 10 -a 2 -x {3.0 1.0 3 ------- null}
h -t 0.087656 -s 0 -d 1 -p ack -e 40 -c 2 -i 10 -a 2 -x {3.0 1.0 -1 ------- null}
r -t 0.088488 -s 3 -d 0 -p ack -e 40 -c 2 -i 11 -a 2 -x {3.0 1.0 4 ------- null}
+ -t 0.088488 -s 0 -d 1 -p ack -e 40 -c 2 -i 11 -a 2 -x {3.0 1.0 4 ------- null}
- -t 0.088488 -s 0 -d 1 -p ack -e 40 -c 2 -i 11 -a 2 -x {3.0 1.0 4 ------- null}
h -t 0.088488 -s 0 -d 1 -p ack -e 40 -c 2 -i 11 -a 2 -x {3.0 1.0 -1 ------- null}
r -t 0.08932 -s 3 -d 0 -p ack -e 40 -c 2 -i 12 -a 2 -x {3.0 1.0 5 ------- null}
+ -t 0.08932 -s 0 -d 1 -p ack -e 40 -c 2 -i 12 -a 2 -x {3.0 1.0 5 ------- null}
- -t 0.08932 -s 0 -d 1 -p ack -e 40 -c 2 -i 12 -a 2 -x {3.0 1.0 5 ------- null}
h -t 0.08932 -s 0 -d 1 -p ack -e 40 -c 2 -i 12 -a 2 -x {3.0 1.0 -1 ------- null}
r -t 0.090152 -s 3 -d 0 -p ack -e 40 -c 2 -i 13 -a 2 -x {3.0 1.0 6 ------- null}
+ -t 0.090152 -s 0 -d 1 -p ack -e 40 -c 2 -i 13 -a 2 -x {3.0 1.0 6 ------- null}
- -t 0.090152 -s 0 -d 1 -p ack -e 40 -c 2 -i 13 -a 2 -x {3.0 1.0 6 ------- null}
h -t 0.090152 -s 0 -d 1 -p ack -e 40 -c 2 -i 13 -a 2 -x {3.0 1.0 -1 ------- null}
r -t 0.092688 -s 0 -d 1 -p ack -e 40 -c 2 -i 10 -a 2 -x {3.0 1.0 3 ------- null}
+ -t 0.092688 -s 1 -d 2 -p tcp -e 1040 -c 2 -i 14 -a 2 -x {1.0 3.0 7 ------- null}
- -t 0.092688 -s 1 -d 2 -p tcp -e 1040 -c 2 -i 14 -a 2 -x {1.0 3.0 7 ------- null}
h -t 0.092688 -s 1 -d 2 -p tcp -e 1040 -c 2 -i 14 -a 2 -x {1.0 3.0 -1 ------- null}
+ -t 0.092688 -s 1 -d 2 -p tcp -e 1040 -c 2 -i 15 -a 2 -x {1.0 3.0 8 ------- null}
r -t 0.09352 -s 0 -d 1 -p ack -e 40 -c 2 -i 11 -a 2 -x {3.0 1.0 4 ------- null}
+ -t 0.09352 -s 1 -d 2 -p tcp -e 1040 -c 2 -i 16 -a 2 -x {1.0 3.0 9 ------- null}
+ -t 0.09352 -s 1 -d 2 -p tcp -e 1040 -c 2 -i 17 -a 2 -x {1.0 3.0 10 ------- null}
- -t 0.09352 -s 1 -d 2 -p tcp -e 1040 -c 2 -i 15 -a 2 -x {1.0 3.0 8 ------- null}
h -t 0.09352 -s 1 -d 2 -p tcp -e 1040 -c 2 -i 15 -a 2 -x {1.0 3.0 -1 ------- null}
- -t 0.094352 -s 1 -d 2 -p tcp -e 1040 -c 2 -i 16 -a 2 -x {1.0 3.0 9 ------- null}
h -t 0.094352 -s 1 -d 2 -p tcp -e 1040 -c 2 -i 16 -a 2 -x {1.0 3.0 -1 ------- null}
r -t 0.094352 -s 0 -d 1 -p ack -e 40 -c 2 -i 12 -a 2 -x {3.0 1.0 5 ------- null}
+ -t 0.094352 -s 1 -d 2 -p tcp -e 1040 -c 2 -i 18 -a 2 -x {1.0 3.0 11 ------- null}
+ -t 0.094352 -s 1 -d 2 -p tcp -e 1040 -c 2 -i 19 -a 2 -x {1.0 3.0 12 ------- null}
- -t 0.095184 -s 1 -d 2 -p tcp -e 1040 -c 2 -i 17 -a 2 -x {1.0 3.0 10 ------- null}
h -t 0.095184 -s 1 -d 2 -p tcp -e 1040 -c 2 -i 17 -a 2 -x {1.0 3.0 -1 ------- null}
r -t 0.095184 -s 0 -d 1 -p ack -e 40 -c 2 -i 13 -a 2 -x {3.0 1.0 6 ------- null}
+ -t 0.095184 -s 1 -d 2 -p tcp -e 1040 -c 2 -i 20 -a 2 -x {1.0 3.0 13 ------- null}
+ -t 0.095184 -s 1 -d 2 -p tcp -e 1040 -c 2 -i 21 -a 2 -x {1.0 3.0 14 ------- null}
- -t 0.096016 -s 1 -d 2 -p tcp -e 1040 -c 2 -i 18 -a 2 -x {1.0 3.0 11 ------- null}
h -t 0.096016 -s 1 -d 2 -p tcp -e 1040 -c 2 -i 18 -a 2 -x {1.0 3.0 -1 ------- null}
- -t 0.096848 -s 1 -d 2 -p tcp -e 1040 -c 2 -i 19 -a 2 -x {1.0 3.0 12 ------- null}
h -t 0.096848 -s 1 -d 2 -p tcp -e 1040 -c 2 -i 19 -a 2 -x {1.0 3.0 -1 ------- null}
- -t 0.09768 -s 1 -d 2 -p tcp -e 1040 -c 2 -i 20 -a 2 -x {1.0 3.0 13 ------- null}
h -t 0.09768 -s 1 -d 2 -p tcp -e 1040 -c 2 -i 20 -a 2 -x {1.0 3.0 -1 ------- null}
- -t 0.098512 -s 1 -d 2 -p tcp -e 1040 -c 2 -i 21 -a 2 -x {1.0 3.0 14 ------- null}
h -t 0.098512 -s 1 -d 2 -p tcp -e 1040 -c 2 -i 21 -a 2 -x {1.0 3.0 -1 ------- null}
r -t 0.09852 -s 1 -d 2 -p tcp -e 1040 -c 2 -i 14 -a 2 -x {1.0 3.0 7 ------- null}
+ -t 0.09852 -s 2 -d 3 -p tcp -e 1040 -c 2 -i 14 -a 2 -x {1.0 3.0 7 ------- null}
- -t 0.09852 -s 2 -d 3 -p tcp -e 1040 -c 2 -i 14 -a 2 -x {1.0 3.0 7 ------- null}
h -t 0.09852 -s 2 -d 3 -p tcp -e 1040 -c 2 -i 14 -a 2 -x {1.0 3.0 -1 ------- null}
r -t 0.099352 -s 1 -d 2 -p tcp -e 1040 -c 2 -i 15 -a 2 -x {1.0 3.0 8 ------- null}
+ -t 0.099352 -s 2 -d 3 -p tcp -e 1040 -c 2 -i 15 -a 2 -x {1.0 3.0 8 ------- null}
- -t 0.099352 -s 2 -d 3 -p tcp -e 1040 -c 2 -i 15 -a 2 -x {1.0 3.0 8 ------- null}
h -t 0.099352 -s 2 -d 3 -p tcp -e 1040 -c 2 -i 15 -a 2 -x {1.0 3.0 -1 ------- null}
r -t 0.100184 -s 1 -d 2 -p tcp -e 1040 -c 2 -i 16 -a 2 -x {1.0 3.0 9 ------- null}
+ -t 0.100184 -s 2 -d 3 -p tcp -e 1040 -c 2 -i 16 -a 2 -x {1.0 3.0 9 ------- null}
- -t 0.100184 -s 2 -d 3 -p tcp -e 1040 -c 2 -i 16 -a 2 -x {1.0 3.0 9 ------- null}
h -t 0.100184 -s 2 -d 3 -p tcp -e 1040 -c 2 -i 16 -a 2 -x {1.0 3.0 -1 ------- null}
r -t 0.101016 -s 1 -d 2 -p tcp -e 1040 -c 2 -i 17 -a 2 -x {1.0 3.0 10 ------- null}
+ -t 0.101016 -s 2 -d 3 -p tcp -e 1040 -c 2 -i 17 -a 2 -x {1.0 3.0 10 ------- null}
- -t 0.101016 -s 2 -d 3 -p tcp -e 1040 -c 2 -i 17 -a 2 -x {1.0 3.0 10 ------- null}
h -t 0.101016 -s 2 -d 3 -p tcp -e 1040 -c 2 -i 17 -a 2 -x {1.0 3.0 -1 ------- null}
r -t 0.101848 -s 1 -d 2 -p tcp -e 1040 -c 2 -i 18 -a 2 -x {1.0 3.0 11 ------- null}
+ -t 0.101848 -s 2 -d 3 -p tcp -e 1040 -c 2 -i 18 -a 2 -x {1.0 3.0 11 ------- null}
- -t 0.101848 -s 2 -d 3 -p tcp -e 1040 -c 2 -i 18 -a 2 -x {1.0 3.0 11 ------- null}
h -t 0.101848 -s 2 -d 3 -p tcp -e 1040 -c 2 -i 18 -a 2 -x {1.0 3.0 -1 ------- null}
r -t 0.10268 -s 1 -d 2 -p tcp -e 1040 -c 2 -i 19 -a 2 -x {1.0 3.0 12 ------- null}
+ -t 0.10268 -s 2 -d 3 -p tcp -e 1040 -c 2 -i 19 -a 2 -x {1.0 3.0 12 ------- null}
- -t 0.10268 -s 2 -d 3 -p tcp -e 1040 -c 2 -i 19 -a 2 -x {1.0 3.0 12 ------- null}
h -t 0.10268 -s 2 -d 3 -p tcp -e 1040 -c 2 -i 19 -a 2 -x {1.0 3.0 -1 ------- null}
r -t 0.103512 -s 1 -d 2 -p tcp -e 1040 -c 2 -i 20 -a 2 -x {1.0 3.0 13 ------- null}
+ -t 0.103512 -s 2 -d 3 -p tcp -e 1040 -c 2 -i 20 -a 2 -x {1.0 3.0 13 ------- null}
- -t 0.103512 -s 2 -d 3 -p tcp -e 1040 -c 2 -i 20 -a 2 -x {1.0 3.0 13 ------- null}
h -t 0.103512 -s 2 -d 3 -p tcp -e 1040 -c 2 -i 20 -a 2 -x {1.0 3.0 -1 ------- null}
r -t 0.104344 -s 1 -d 2 -p tcp -e 1040 -c 2 -i 21 -a 2 -x {1.0 3.0 14 ------- null}
+ -t 0.104344 -s 2 -d 3 -p tcp -e 1040 -c 2 -i 21 -a 2 -x {1.0 3.0 14 ------- null}
- -t 0.104344 -s 2 -d 3 -p tcp -e 1040 -c 2 -i 21 -a 2 -x {1.0 3.0 14 ------- null}
h -t 0.104344 -s 2 -d 3 -p tcp -e 1040 -c 2 -i 21 -a 2 -x {1.0 3.0 -1 ------- null}
r -t 0.108936 -s 2 -d 3 -p tcp -e 1040 -c 2 -i 14 -a 2 -x {1.0 3.0 7 ------- null}
+ -t 0.108936 -s 3 -d 0 -p ack -e 40 -c 2 -i 22 -a 2 -x {3.0 1.0 7 ------- null}
- -t 0.108936 -s 3 -d 0 -p ack -e 40 -c 2 -i 22 -a 2 -x {3.0 1.0 7 ------- null}
h -t 0.108936 -s 3 -d 0 -p ack -e 40 -c 2 -i 22 -a 2 -x {3.0 1.0 -1 ------- null}
r -t 0.109768 -s 2 -d 3 -p tcp -e 1040 -c 2 -i 15 -a 2 -x {1.0 3.0 8 ------- null}
+ -t 0.109768 -s 3 -d 0 -p ack -e 40 -c 2 -i 23 -a 2 -x {3.0 1.0 8 ------- null}
- -t 0.109768 -s 3 -d 0 -p ack -e 40 -c 2 -i 23 -a 2 -x {3.0 1.0 8 ------- null}
h -t 0.109768 -s 3 -d 0 -p ack -e 40 -c 2 -i 23 -a 2 -x {3.0 1.0 -1 ------- null}
r -t 0.1106 -s 2 -d 3 -p tcp -e 1040 -c 2 -i 16 -a 2 -x {1.0 3.0 9 ------- null}
+ -t 0.1106 -s 3 -d 0 -p ack -e 40 -c 2 -i 24 -a 2 -x {3.0 1.0 9 ------- null}
- -t 0.1106 -s 3 -d 0 -p ack -e 40 -c 2 -i 24 -a 2 -x {3.0 1.0 9 ------- null}
h -t 0.1106 -s 3 -d 0 -p ack -e 40 -c 2 -i 24 -a 2 -x {3.0 1.0 -1 ------- null}
r -t 0.111432 -s 2 -d 3 -p tcp -e 1040 -c 2 -i 17 -a 2 -x {1.0 3.0 10 ------- null}
+ -t 0.111432 -s 3 -d 0 -p ack -e 40 -c 2 -i 25 -a 2 -x {3.0 1.0 10 ------- null}
- -t 0.111432 -s 3 -d 0 -p ack -e 40 -c 2 -i 25 -a 2 -x {3.0 1.0 10 ------- null}
h -t 0.111432 -s 3 -d 0 -p ack -e 40 -c 2 -i 25 -a 2 -x {3.0 1.0 -1 ------- null}
r -t 0.112264 -s 2 -d 3 -p tcp -e 1040 -c 2 -i 18 -a 2 -x {1.0 3.0 11 ------- null}
+ -t 0.112264 -s 3 -d 0 -p ack -e 40 -c 2 -i 26 -a 2 -x {3.0 1.0 11 ------- null}
- -t 0.112264 -s 3 -d 0 -p ack -e 40 -c 2 -i 26 -a 2 -x {3.0 1.0 11 ------- null}
h -t 0.112264 -s 3 -d 0 -p ack -e 40 -c 2 -i 26 -a 2 -x {3.0 1.0 -1 ------- null}
r -t 0.113096 -s 2 -d 3 -p tcp -e 1040 -c 2 -i 19 -a 2 -x {1.0 3.0 12 ------- null}
+ -t 0.113096 -s 3 -d 0 -p ack -e 40 -c 2 -i 27 -a 2 -x {3.0 1.0 12 ------- null}
- -t 0.113096 -s 3 -d 0 -p ack -e 40 -c 2 -i 27 -a 2 -x {3.0 1.0 12 ------- null}
h -t 0.113096 -s 3 -d 0 -p ack -e 40 -c 2 -i 27 -a 2 -x {3.0 1.0 -1 ------- null}
r -t 0.113928 -s 2 -d 3 -p tcp -e 1040 -c 2 -i 20 -a 2 -x {1.0 3.0 13 ------- null}
+ -t 0.113928 -s 3 -d 0 -p ack -e 40 -c 2 -i 28 -a 2 -x {3.0 1.0 13 ------- null}
- -t 0.113928 -s 3 -d 0 -p ack -e 40 -c 2 -i 28 -a 2 -x {3.0 1.0 13 ------- null}
h -t 0.113928 -s 3 -d 0 -p ack -e 40 -c 2 -i 28 -a 2 -x {3.0 1.0 -1 ------- null}
r -t 0.11476 -s 2 -d 3 -p tcp -e 1040 -c 2 -i 21 -a 2 -x {1.0 3.0 14 ------- null}
+ -t 0.11476 -s 3 -d 0 -p ack -e 40 -c 2 -i 29 -a 2 -x {3.0 1.0 14 ------- null}
- -t 0.11476 -s 3 -d 0 -p ack -e 40 -c 2 -i 29 -a 2 -x {3.0 1.0 14 ------- null}
h -t 0.11476 -s 3 -d 0 -p ack -e 40 -c 2 -i 29 -a 2 -x {3.0 1.0 -1 ------- null}
r -t 0.118952 -s 3 -d 0 -p ack -e 40 -c 2 -i 22 -a 2 -x {3.0 1.0 7 ------- null}
+ -t 0.118952 -s 0 -d 1 -p ack -e 40 -c 2 -i 22 -a 2 -x {3.0 1.0 7 ------- null}
- -t 0.118952 -s 0 -d 1 -p ack -e 40 -c 2 -i 22 -a 2 -x {3.0 1.0 7 ------- null}
h -t 0.118952 -s 0 -d 1 -p ack -e 40 -c 2 -i 22 -a 2 -x {3.0 1.0 -1 ------- null}
r -t 0.119784 -s 3 -d 0 -p ack -e 40 -c 2 -i 23 -a 2 -x {3.0 1.0 8 ------- null}
+ -t 0.119784 -s 0 -d 1 -p ack -e 40 -c 2 -i 23 -a 2 -x {3.0 1.0 8 ------- null}
- -t 0.119784 -s 0 -d 1 -p ack -e 40 -c 2 -i 23 -a 2 -x {3.0 1.0 8 ------- null}
h -t 0.119784 -s 0 -d 1 -p ack -e 40 -c 2 -i 23 -a 2 -x {3.0 1.0 -1 ------- null}
r -t 0.120616 -s 3 -d 0 -p ack -e 40 -c 2 -i 24 -a 2 -x {3.0 1.0 9 ------- null}
+ -t 0.120616 -s 0 -d 1 -p ack -e 40 -c 2 -i 24 -a 2 -x {3.0 1.0 9 ------- null}
- -t 0.120616 -s 0 -d 1 -p ack -e 40 -c 2 -i 24 -a 2 -x {3.0 1.0 9 ------- null}
h -t 0.120616 -s 0 -d 1 -p ack -e 40 -c 2 -i 24 -a 2 -x {3.0 1.0 -1 ------- null}
r -t 0.121448 -s 3 -d 0 -p ack -e 40 -c 2 -i 25 -a 2 -x {3.0 1.0 10 ------- null}
+ -t 0.121448 -s 0 -d 1 -p ack -e 40 -c 2 -i 25 -a 2 -x {3.0 1.0 10 ------- null}
- -t 0.121448 -s 0 -d 1 -p ack -e 40 -c 2 -i 25 -a 2 -x {3.0 1.0 10 ------- null}
h -t 0.121448 -s 0 -d 1 -p ack -e 40 -c 2 -i 25 -a 2 -x {3.0 1.0 -1 ------- null}
r -t 0.12228 -s 3 -d 0 -p ack -e 40 -c 2 -i 26 -a 2 -x {3.0 1.0 11 ------- null}
+ -t 0.12228 -s 0 -d 1 -p ack -e 40 -c 2 -i 26 -a 2 -x {3.0 1.0 11 ------- null}
- -t 0.12228 -s 0 -d 1 -p ack -e 40 -c 2 -i 26 -a 2 -x {3.0 1.0 11 ------- null}
h -t 0.12228 -s 0 -d 1 -p ack -e 40 -c 2 -i 26 -a 2 -x {3.0 1.0 -1 ------- null}
r -t 0.123112 -s 3 -d 0 -p ack -e 40 -c 2 -i 27 -a 2 -x {3.0 1.0 12 ------- null}
+ -t 0.123112 -s 0 -d 1 -p ack -e 40 -c 2 -i 27 -a 2 -x {3.0 1.0 12 ------- null}
- -t 0.123112 -s 0 -d 1 -p ack -e 40 -c 2 -i 27 -a 2 -x {3.0 1.0 12 ------- null}
h -t 0.123112 -s 0 -d 1 -p ack -e 40 -c 2 -i 27 -a 2 -x {3.0 1.0 -1 ------- null}
r -t 0.123944 -s 3 -d 0 -p ack -e 40 -c 2 -i 28 -a 2 -x {3.0 1.0 13 ------- null}
+ -t 0.123944 -s 0 -d 1 -p ack -e 40 -c 2 -i 28 -a 2 -x {3.0 1.0 13 ------- null}
- -t 0.123944 -s 0 -d 1 -p ack -e 40 -c 2 -i 28 -a 2 -x {3.0 1.0 13 ------- null}
h -t 0.123944 -s 0 -d 1 -p ack -e 40 -c 2 -i 28 -a 2 -x {3.0 1.0 -1 ------- null}
r -t 0.123984 -s 0 -d 1 -p ack -e 40 -c 2 -i 22 -a 2 -x {3.0 1.0 7 ------- null}
+ -t 0.123984 -s 1 -d 2 -p tcp -e 1040 -c 2 -i 30 -a 2 -x {1.0 3.0 15 ------- null}
- -t 0.123984 -s 1 -d 2 -p tcp -e 1040 -c 2 -i 30 -a 2 -x {1.0 3.0 15 ------- null}
h -t 0.123984 -s 1 -d 2 -p tcp -e 1040 -c 2 -i 30 -a 2 -x {1.0 3.0 -1 ------- null}
+ -t 0.123984 -s 1 -d 2 -p tcp -e 1040 -c 2 -i 31 -a 2 -x {1.0 3.0 16 ------- null}
r -t 0.124776 -s 3 -d 0 -p ack -e 40 -c 2 -i 29 -a 2 -x {3.0 1.0 14 ------- null}
+ -t 0.124776 -s 0 -d 1 -p ack -e 40 -c 2 -i 29 -a 2 -x {3.0 1.0 14 ------- null}
- -t 0.124776 -s 0 -d 1 -p ack -e 40 -c 2 -i 29 -a 2 -x {3.0 1.0 14 ------- null}
h -t 0.124776 -s 0 -d 1 -p ack -e 40 -c 2 -i 29 -a 2 -x {3.0 1.0 -1 ------- null}
r -t 0.124816 -s 0 -d 1 -p ack -e 40 -c 2 -i 23 -a 2 -x {3.0 1.0 8 ------- null}
+ -t 0.124816 -s 1 -d 2 -p tcp -e 1040 -c 2 -i 32 -a 2 -x {1.0 3.0 17 ------- null}
+ -t 0.124816 -s 1 -d 2 -p tcp -e 1040 -c 2 -i 33 -a 2 -x {1.0 3.0 18 ------- null}
- -t 0.124816 -s 1 -d 2 -p tcp -e 1040 -c 2 -i 31 -a 2 -x {1.0 3.0 16 ------- null}
h -t 0.124816 -s 1 -d 2 -p tcp -e 1040 -c 2 -i 31 -a 2 -x {1.0 3.0 -1 ------- null}
r -t 0.125648 -s 0 -d 1 -p ack -e 40 -c 2 -i 24 -a 2 -x {3.0 1.0 9 ------- null}
+ -t 0.125648 -s 1 -d 2 -p tcp -e 1040 -c 2 -i 34 -a 2 -x {1.0 3.0 19 ------- null}
+ -t 0.125648 -s 1 -d 2 -p tcp -e 1040 -c 2 -i 35 -a 2 -x {1.0 3.0 20 ------- null}
- -t 0.125648 -s 1 -d 2 -p tcp -e 1040 -c 2 -i 32 -a 2 -x {1.0 3.0 17 ------- null}
h -t 0.125648 -s 1 -d 2 -p tcp -e 1040 -c 2 -i 32 -a 2 -x {1.0 3.0 -1 ------- null}
r -t 0.12648 -s 0 -d 1 -p ack -e 40 -c 2 -i 25 -a 2 -x {3.0 1.0 10 ------- null}
+ -t 0.12648 -s 1 -d 2 -p tcp -e 1040 -c 2 -i 36 -a 2 -x {1.0 3.0 21 ------- null}
+ -t 0.12648 -s 1 -d 2 -p tcp -e 1040 -c 2 -i 37 -a 2 -x {1.0 3.0 22 ------- null}
- -t 0.12648 -s 1 -d 2 -p tcp -e 1040 -c 2 -i 33 -a 2 -x {1.0 3.0 18 ------- null}
h -t 0.12648 -s 1 -d 2 -p tcp -e 1040 -c 2 -i 33 -a 2 -x {1.0 3.0 -1 ------- null}
r -t 0.127312 -s 0 -d 1 -p ack -e 40 -c 2 -i 26 -a 2 -x {3.0 1.0 11 ------- null}
+ -t 0.127312 -s 1 -d 2 -p tcp -e 1040 -c 2 -i 38 -a 2 -x {1.0 3.0 23 ------- null}
+ -t 0.127312 -s 1 -d 2 -p tcp -e 1040 -c 2 -i 39 -a 2 -x {1.0 3.0 24 ------- null}
- -t 0.127312 -s 1 -d 2 -p tcp -e 1040 -c 2 -i 34 -a 2 -x {1.0 3.0 19 ------- null}
h -t 0.127312 -s 1 -d 2 -p tcp -e 1040 -c 2 -i 34 -a 2 -x {1.0 3.0 -1 ------- null}
r -t 0.128144 -s 0 -d 1 -p ack -e 40 -c 2 -i 27 -a 2 -x {3.0 1.0 12 ------- null}
+ -t 0.128144 -s 1 -d 2 -p tcp -e 1040 -c 2 -i 40 -a 2 -x {1.0 3.0 25 ------- null}
+ -t 0.128144 -s 1 -d 2 -p tcp -e 1040 -c 2 -i 41 -a 2 -x {1.0 3.0 26 ------- null}
- -t 0.128144 -s 1 -d 2 -p tcp -e 1040 -c 2 -i 35 -a 2 -x {1.0 3.0 20 ------- null}
h -t 0.128144 -s 1 -d 2 -p tcp -e 1040 -c 2 -i 35 -a 2 -x {1.0 3.0 -1 ------- null}
r -t 0.128976 -s 0 -d 1 -p ack -e 40 -c 2 -i 28 -a 2 -x {3.0 1.0 13 ------- null}
+ -t 0.128976 -s 1 -d 2 -p tcp -e 1040 -c 2 -i 42 -a 2 -x {1.0 3.0 27 ------- null}
+ -t 0.128976 -s 1 -d 2 -p tcp -e 1040 -c 2 -i 43 -a 2 -x {1.0 3.0 28 ------- null}
- -t 0.128976 -s 1 -d 2 -p tcp -e 1040 -c 2 -i 36 -a 2 -x {1.0 3.0 21 ------- null}
h -t 0.128976 -s 1 -d 2 -p tcp -e 1040 -c 2 -i 36 -a 2 -x {1.0 3.0 -1 ------- null}
r -t 0.129808 -s 0 -d 1 -p ack -e 40 -c 2 -i 29 -a 2 -x {3.0 1.0 14 ------- null}
+ -t 0.129808 -s 1 -d 2 -p tcp -e 1040 -c 2 -i 44 -a 2 -x {1.0 3.0 29 ------- null}
+ -t 0.129808 -s 1 -d 2 -p tcp -e 1040 -c 2 -i 45 -a 2 -x {1.0 3.0 30 ------- null}
- -t 0.129808 -s 1 -d 2 -p tcp -e 1040 -c 2 -i 37 -a 2 -x {1.0 3.0 22 ------- null}
h -t 0.129808 -s 1 -d 2 -p tcp -e 1040 -c 2 -i 37 -a 2 -x {1.0 3.0 -1 ------- null}
r -t 0.129816 -s 1 -d 2 -p tcp -e 1040 -c 2 -i 30 -a 2 -x {1.0 3.0 15 ------- null}
+ -t 0.129816 -s 2 -d 3 -p tcp -e 1040 -c 2 -i 30 -a 2 -x {1.0 3.0 15 ------- null}
- -t 0.129816 -s 2 -d 3 -p tcp -e 1040 -c 2 -i 30 -a 2 -x {1.0 3.0 15 ------- null}
h -t 0.129816 -s 2 -d 3 -p tcp -e 1040 -c 2 -i 30 -a 2 -x {1.0 3.0 -1 ------- null}
- -t 0.13064 -s 1 -d 2 -p tcp -e 1040 -c 2 -i 38 -a 2 -x {1.0 3.0 23 ------- null}
h -t 0.13064 -s 1 -d 2 -p tcp -e 1040 -c 2 -i 38 -a 2 -x {1.0 3.0 -1 ------- null}
r -t 0.130648 -s 1 -d 2 -p tcp -e 1040 -c 2 -i 31 -a 2 -x {1.0 3.0 16 ------- null}
+ -t 0.130648 -s 2 -d 3 -p tcp -e 1040 -c 2 -i 31 -a 2 -x {1.0 3.0 16 ------- null}
- -t 0.130648 -s 2 -d 3 -p tcp -e 1040 -c 2 -i 31 -a 2 -x {1.0 3.0 16 ------- null}
h -t 0.130648 -s 2 -d 3 -p tcp -e 1040 -c 2 -i 31 -a 2 -x {1.0 3.0 -1 ------- null}
- -t 0.131472 -s 1 -d 2 -p tcp -e 1040 -c 2 -i 39 -a 2 -x {1.0 3.0 24 ------- null}
h -t 0.131472 -s 1 -d 2 -p tcp -e 1040 -c 2 -i 39 -a 2 -x {1.0 3.0 -1 ------- null}
r -t 0.13148 -s 1 -d 2 -p tcp -e 1040 -c 2 -i 32 -a 2 -x {1.0 3.0 17 ------- null}
+ -t 0.13148 -s 2 -d 3 -p tcp -e 1040 -c 2 -i 32 -a 2 -x {1.0 3.0 17 ------- null}
- -t 0.13148 -s 2 -d 3 -p tcp -e 1040 -c 2 -i 32 -a 2 -x {1.0 3.0 17 ------- null}
h -t 0.13148 -s 2 -d 3 -p tcp -e 1040 -c 2 -i 32 -a 2 -x {1.0 3.0 -1 ------- null}
- -t 0.132304 -s 1 -d 2 -p tcp -e 1040 -c 2 -i 40 -a 2 -x {1.0 3.0 25 ------- null}
h -t 0.132304 -s 1 -d 2 -p tcp -e 1040 -c 2 -i 40 -a 2 -x {1.0 3.0 -1 ------- null}
r -t 0.132312 -s 1 -d 2 -p tcp -e 1040 -c 2 -i 33 -a 2 -x {1.0 3.0 18 ------- null}
+ -t 0.132312 -s 2 -d 3 -p tcp -e 1040 -c 2 -i 33 -a 2 -x {1.0 3.0 18 ------- null}
- -t 0.132312 -s 2 -d 3 -p tcp -e 1040 -c 2 -i 33 -a 2 -x {1.0 3.0 18 ------- null}
h -t 0.132312 -s 2 -d 3 -p tcp -e 1040 -c 2 -i 33 -a 2 -x {1.0 3.0 -1 ------- null}
- -t 0.133136 -s 1 -d 2 -p tcp -e 1040 -c 2 -i 41 -a 2 -x {1.0 3.0 26 ------- null}
h -t 0.133136 -s 1 -d 2 -p tcp -e 1040 -c 2 -i 41 -a 2 -x {1.0 3.0 -1 ------- null}
r -t 0.133144 -s 1 -d 2 -p tcp -e 1040 -c 2 -i 34 -a 2 -x {1.0 3.0 19 ------- null}
+ -t 0.133144 -s 2 -d 3 -p tcp -e 1040 -c 2 -i 34 -a 2 -x {1.0 3.0 19 ------- null}
- -t 0.133144 -s 2 -d 3 -p tcp -e 1040 -c 2 -i 34 -a 2 -x {1.0 3.0 19 ------- null}
h -t 0.133144 -s 2 -d 3 -p tcp -e 1040 -c 2 -i 34 -a 2 -x {1.0 3.0 -1 ------- null}
- -t 0.133968 -s 1 -d 2 -p tcp -e 1040 -c 2 -i 42 -a 2 -x {1.0 3.0 27 ------- null}
h -t 0.133968 -s 1 -d 2 -p tcp -e 1040 -c 2 -i 42 -a 2 -x {1.0 3.0 -1 ------- null}
r -t 0.133976 -s 1 -d 2 -p tcp -e 1040 -c 2 -i 35 -a 2 -x {1.0 3.0 20 ------- null}
+ -t 0.133976 -s 2 -d 3 -p tcp -e 1040 -c 2 -i 35 -a 2 -x {1.0 3.0 20 ------- null}
- -t 0.133976 -s 2 -d 3 -p tcp -e 1040 -c 2 -i 35 -a 2 -x {1.0 3.0 20 ------- null}
h -t 0.133976 -s 2 -d 3 -p tcp -e 1040 -c 2 -i 35 -a 2 -x {1.0 3.0 -1 ------- null}
- -t 0.1348 -s 1 -d 2 -p tcp -e 1040 -c 2 -i 43 -a 2 -x {1.0 3.0 28 ------- null}
h -t 0.1348 -s 1 -d 2 -p tcp -e 1040 -c 2 -i 43 -a 2 -x {1.0 3.0 -1 ------- null}
r -t 0.134808 -s 1 -d 2 -p tcp -e 1040 -c 2 -i 36 -a 2 -x {1.0 3.0 21 ------- null}
+ -t 0.134808 -s 2 -d 3 -p tcp -e 1040 -c 2 -i 36 -a 2 -x {1.0 3.0 21 ------- null}
- -t 0.134808 -s 2 -d 3 -p tcp -e 1040 -c 2 -i 36 -a 2 -x {1.0 3.0 21 ------- null}
h -t 0.134808 -s 2 -d 3 -p tcp -e 1040 -c 2 -i 36 -a 2 -x {1.0 3.0 -1 ------- null}
- -t 0.135632 -s 1 -d 2 -p tcp -e 1040 -c 2 -i 44 -a 2 -x {1.0 3.0 29 ------- null}
h -t 0.135632 -s 1 -d 2 -p tcp -e 1040 -c 2 -i 44 -a 2 -x {1.0 3.0 -1 ------- null}
r -t 0.13564 -s 1 -d 2 -p tcp -e 1040 -c 2 -i 37 -a 2 -x {1.0 3.0 22 ------- null}
+ -t 0.13564 -s 2 -d 3 -p tcp -e 1040 -c 2 -i 37 -a 2 -x {1.0 3.0 22 ------- null}
- -t 0.13564 -s 2 -d 3 -p tcp -e 1040 -c 2 -i 37 -a 2 -x {1.0 3.0 22 ------- null}
h -t 0.13564 -s 2 -d 3 -p tcp -e 1040 -c 2 -i 37 -a 2 -x {1.0 3.0 -1 ------- null}
- -t 0.136464 -s 1 -d 2 -p tcp -e 1040 -c 2 -i 45 -a 2 -x {1.0 3.0 30 ------- null}
h -t 0.136464 -s 1 -d 2 -p tcp -e 1040 -c 2 -i 45 -a 2 -x {1.0 3.0 -1 ------- null}
r -t 0.136472 -s 1 -d 2 -p tcp -e 1040 -c 2 -i 38 -a 2 -x {1.0 3.0 23 ------- null}
+ -t 0.136472 -s 2 -d 3 -p tcp -e 1040 -c 2 -i 38 -a 2 -x {1.0 3.0 23 ------- null}
- -t 0.136472 -s 2 -d 3 -p tcp -e 1040 -c 2 -i 38 -a 2 -x {1.0 3.0 23 ------- null}
h -t 0.136472 -s 2 -d 3 -p tcp -e 1040 -c 2 -i 38 -a 2 -x {1.0 3.0 -1 ------- null}
r -t 0.137304 -s 1 -d 2 -p tcp -e 1040 -c 2 -i 39 -a 2 -x {1.0 3.0 24 ------- null}
+ -t 0.137304 -s 2 -d 3 -p tcp -e 1040 -c 2 -i 39 -a 2 -x {1.0 3.0 24 ------- null}
- -t 0.137304 -s 2 -d 3 -p tcp -e 1040 -c 2 -i 39 -a 2 -x {1.0 3.0 24 ------- null}
h -t 0.137304 -s 2 -d 3 -p tcp -e 1040 -c 2 -i 39 -a 2 -x {1.0 3.0 -1 ------- null}
r -t 0.138136 -s 1 -d 2 -p tcp -e 1040 -c 2 -i 40 -a 2 -x {1.0 3.0 25 ------- null}
+ -t 0.138136 -s 2 -d 3 -p tcp -e 1040 -c 2 -i 40 -a 2 -x {1.0 3.0 25 ------- null}
- -t 0.138136 -s 2 -d 3 -p tcp -e 1040 -c 2 -i 40 -a 2 -x {1.0 3.0 25 ------- null}
h -t 0.138136 -s 2 -d 3 -p tcp -e 1040 -c 2 -i 40 -a 2 -x {1.0 3.0 -1 ------- null}
r -t 0.138968 -s 1 -d 2 -p tcp -e 1040 -c 2 -i 41 -a 2 -x {1.0 3.0 26 ------- null}
+ -t 0.138968 -s 2 -d 3 -p tcp -e 1040 -c 2 -i 41 -a 2 -x {1.0 3.0 26 ------- null}
- -t 0.138968 -s 2 -d 3 -p tcp -e 1040 -c 2 -i 41 -a 2 -x {1.0 3.0 26 ------- null}
h -t 0.138968 -s 2 -d 3 -p tcp -e 1040 -c 2 -i 41 -a 2 -x {1.0 3.0 -1 ------- null}
r -t 0.1398 -s 1 -d 2 -p tcp -e 1040 -c 2 -i 42 -a 2 -x {1.0 3.0 27 ------- null}
+ -t 0.1398 -s 2 -d 3 -p tcp -e 1040 -c 2 -i 42 -a 2 -x {1.0 3.0 27 ------- null}
- -t 0.1398 -s 2 -d 3 -p tcp -e 1040 -c 2 -i 42 -a 2 -x {1.0 3.0 27 ------- null}
h -t 0.1398 -s 2 -d 3 -p tcp -e 1040 -c 2 -i 42 -a 2 -x {1.0 3.0 -1 ------- null}
r -t 0.140232 -s 2 -d 3 -p tcp -e 1040 -c 2 -i 30 -a 2 -x {1.0 3.0 15 ------- null}
+ -t 0.140232 -s 3 -d 0 -p ack -e 40 -c 2 -i 46 -a 2 -x {3.0 1.0 15 ------- null}
- -t 0.140232 -s 3 -d 0 -p ack -e 40 -c 2 -i 46 -a 2 -x {3.0 1.0 15 ------- null}
h -t 0.140232 -s 3 -d 0 -p ack -e 40 -c 2 -i 46 -a 2 -x {3.0 1.0 -1 ------- null}
r -t 0.140632 -s 1 -d 2 -p tcp -e 1040 -c 2 -i 43 -a 2 -x {1.0 3.0 28 ------- null}
+ -t 0.140632 -s 2 -d 3 -p tcp -e 1040 -c 2 -i 43 -a 2 -x {1.0 3.0 28 ------- null}
- -t 0.140632 -s 2 -d 3 -p tcp -e 1040 -c 2 -i 43 -a 2 -x {1.0 3.0 28 ------- null}
h -t 0.140632 -s 2 -d 3 -p tcp -e 1040 -c 2 -i 43 -a 2 -x {1.0 3.0 -1 ------- null}
r -t 0.141064 -s 2 -d 3 -p tcp -e 1040 -c 2 -i 31 -a 2 -x {1.0 3.0 16 ------- null}
+ -t 0.141064 -s 3 -d 0 -p ack -e 40 -c 2 -i 47 -a 2 -x {3.0 1.0 16 ------- null}
- -t 0.141064 -s 3 -d 0 -p ack -e 40 -c 2 -i 47 -a 2 -x {3.0 1.0 16 ------- null}
h -t 0.141064 -s 3 -d 0 -p ack -e 40 -c 2 -i 47 -a 2 -x {3.0 1.0 -1 ------- null}
r -t 0.141464 -s 1 -d 2 -p tcp -e 1040 -c 2 -i 44 -a 2 -x {1.0 3.0 29 ------- null}
+ -t 0.141464 -s 2 -d 3 -p tcp -e 1040 -c 2 -i 44 -a 2 -x {1.0 3.0 29 ------- null}
- -t 0.141464 -s 2 -d 3 -p tcp -e 1040 -c 2 -i 44 -a 2 -x {1.0 3.0 29 ------- null}
h -t 0.141464 -s 2 -d 3 -p tcp -e 1040 -c 2 -i 44 -a 2 -x {1.0 3.0 -1 ------- null}
r -t 0.141896 -s 2 -d 3 -p tcp -e 1040 -c 2 -i 32 -a 2 -x {1.0 3.0 17 ------- null}